       N       E                     dE             d eps       ncg     rms          rms(c)
DAV:   1    -0.532072679007E+01   -0.53207E+01   -0.31174E+03  2560   0.177E+02
DAV:   2    -0.108206745966E+02   -0.54999E+01   -0.54994E+01  3840   0.178E+01
DAV:   3    -0.108301166572E+02   -0.94421E-02   -0.94421E-02  2624   0.919E-01
DAV:   4    -0.108301245070E+02   -0.78498E-05   -0.78544E-05  4960   0.276E-02
DAV:   5    -0.108301245082E+02   -0.11983E-08   -0.22922E-10  2592   0.345E-05    0.532E+00
RMM:   6    -0.108819409262E+02   -0.51816E-01   -0.21122E-02  2560   0.375E-01    0.311E+00
RMM:   7    -0.108204976357E+02    0.61443E-01   -0.17119E-02  2560   0.349E-01    0.183E+00
RMM:   8    -0.108376625079E+02   -0.17165E-01   -0.45088E-03  2560   0.182E-01    0.415E-01
RMM:   9    -0.108387524677E+02   -0.10900E-02   -0.39225E-04  2560   0.528E-02    0.970E-02
RMM:  10    -0.108391161743E+02   -0.36371E-03   -0.17643E-04  2558   0.334E-02    0.447E-02
RMM:  11    -0.108391963972E+02   -0.80223E-04   -0.60600E-05  2294   0.182E-02
   1 F= -.10839196E+02 E0= -.10839196E+02  d E =-.108392E+02  mag=     0.0002
       N       E                     dE             d eps       ncg     rms          rms(c)
DAV:   1    -0.108433497027E+02   -0.42335E-02   -0.11085E-01  2848   0.472E-01    0.341E-01
RMM:   2    -0.108414477789E+02    0.19019E-02   -0.25705E-04  2556   0.509E-02    0.193E-01
RMM:   3    -0.108404635509E+02    0.98423E-03   -0.22573E-04  2558   0.326E-02    0.551E-02
RMM:   4    -0.108404617089E+02    0.18421E-05   -0.11715E-05  1906   0.929E-03    0.450E-02
RMM:   5    -0.108404603527E+02    0.13562E-05   -0.10053E-06  1532   0.303E-03
   2 F= -.10840460E+02 E0= -.10840460E+02  d E =-.126396E-02  mag=     0.0000
       N       E                     dE             d eps       ncg     rms          rms(c)
DAV:   1    -0.108417219860E+02   -0.12603E-02   -0.16302E-02  3456   0.183E-01    0.125E-01
RMM:   2    -0.108414511332E+02    0.27085E-03   -0.33156E-05  2217   0.176E-02    0.680E-02
RMM:   3    -0.108413169945E+02    0.13414E-03   -0.31322E-05  2280   0.122E-02    0.199E-02
RMM:   4    -0.108413174929E+02   -0.49844E-06   -0.15646E-06  1333   0.355E-03    0.193E-02
RMM:   5    -0.108413182199E+02   -0.72697E-06   -0.22936E-08   792   0.139E-03
   3 F= -.10841318E+02 E0= -.10841318E+02  d E =-.212182E-02  mag=     0.0000
