 vasp.6.3.2 27Jun22 (build May 29 2024 20:51:42) complex                        
  
 executed on             LinuxIFC date 2026.05.24  12:00:55
 running on   32 total cores
 distrk:  each k-point on   32 cores,    1 groups
 distr:  one band on NCORE=   1 cores,   32 groups


--------------------------------------------------------------------------------------------------------


 INCAR:
   ALGO = Fast
   EDIFF = 0.0001
   ENCUT = 520.0
   IBRION = 2
   ISIF = 3
   ISMEAR = -5
   ISPIN = 2
   LASPH = True
   LORBIT = 11
   LREAL = Auto
   LWAVE = False
   MAGMOM = 2*0.6
   NELM = 100
   NELMIN = 5
   NSW = 99
   PREC = Accurate
   SIGMA = 0.05

 POTCAR:    PAW_PBE Si 05Jan2001                  
 -----------------------------------------------------------------------------
|                                                                             |
|           W    W    AA    RRRRR   N    N  II  N    N   GGGG   !!!           |
|           W    W   A  A   R    R  NN   N  II  NN   N  G    G  !!!           |
|           W    W  A    A  R    R  N N  N  II  N N  N  G       !!!           |
|           W WW W  AAAAAA  RRRRR   N  N N  II  N  N N  G  GGG   !            |
|           WW  WW  A    A  R   R   N   NN  II  N   NN  G    G                |
|           W    W  A    A  R    R  N    N  II  N    N   GGGG   !!!           |
|                                                                             |
|     For optimal performance we recommend to set                             |
|       NCORE = 2 up to number-of-cores-per-socket                            |
|     NCORE specifies how many cores store one orbital (NPAR=cpu/NCORE).      |
|     This setting can greatly improve the performance of VASP for DFT.       |
|     The default, NCORE=1 might be grossly inefficient on modern             |
|     multi-core architectures or massively parallel machines. Do your        |
|     own testing! More info at https://www.vasp.at/wiki/index.php/NCORE      |
|     Unfortunately you need to use the default for GW and RPA                |
|     calculations (for HF NCORE is supported but not extensively tested      |
|     yet).                                                                   |
|                                                                             |
 -----------------------------------------------------------------------------

 POTCAR:    PAW_PBE Si 05Jan2001                  
   VRHFIN =Si: s2p2                                                                                 
   LEXCH  = PE                                                                                      
   EATOM  =   103.0669 eV,    7.5752 Ry                                                             
                                                                                                    
   TITEL  = PAW_PBE Si 05Jan2001                                                                    
   LULTRA =        F    use ultrasoft PP ?                                                          
   IUNSCR =        1    unscreen: 0-lin 1-nonlin 2-no                                               
   RPACOR =    1.500    partial core radius                                                         
   POMASS =   28.085; ZVAL   =    4.000    mass and valenz                                          
   RCORE  =    1.900    outmost cutoff radius                                                       
   RWIGS  =    2.480; RWIGS  =    1.312    wigner-seitz radius (au A)                               
   ENMAX  =  245.345; ENMIN  =  184.009 eV                                                          
   ICORE  =        2    local potential                                                             
   LCOR   =        T    correct aug charges                                                         
   LPAW   =        T    paw PP                                                                      
   EAUG   =  322.069                                                                                
   DEXC   =    0.000                                                                                
   RMAX   =    1.950    core radius for proj-oper                                                   
   RAUG   =    1.300    factor for augmentation sphere                                              
   RDEP   =    1.993    radius for radial grids                                                     
   RDEPT  =    1.837    core radius for aug-charge                                                  
                                                                                                    
   Atomic configuration                                                                             
    6 entries                                                                                       
     n  l   j            E        occ.                                                              
     1  0  0.50     -1785.8828   2.0000                                                             
     2  0  0.50      -139.4969   2.0000                                                             
     2  1  1.50       -95.5546   6.0000                                                             
     3  0  0.50       -10.8127   2.0000                                                             
     3  1  0.50        -4.0811   2.0000                                                             
     3  2  1.50        -4.0817   0.0000                                                             
   Description                                                                                      
     l       E           TYP  RCUT    TYP  RCUT                                                     
     0    -10.8127223     23  1.900                                                                 
     0     -7.6451159     23  1.900                                                                 
     1     -4.0811372     23  1.900                                                                 
     1      2.4879257     23  1.900                                                                 
     2     -4.0817478      7  1.900                                                                 
  local pseudopotential read in
  partial core-charges read in
  partial kinetic energy density read in
  atomic valenz-charges read in
  non local Contribution for L=           0  read in
    real space projection operators read in
  non local Contribution for L=           0  read in
    real space projection operators read in
  non local Contribution for L=           1  read in
    real space projection operators read in
  non local Contribution for L=           1  read in
    real space projection operators read in
    PAW grid and wavefunctions read in
 
   number of l-projection  operators is LMAX  =           4
   number of lm-projection operators is LMMAX =           8
 
 -----------------------------------------------------------------------------
|                                                                             |
|               ----> ADVICE to this user running VASP <----                  |
|                                                                             |
|     You have a (more or less) 'small supercell' and for smaller cells       |
|     it is recommended to use the reciprocal-space projection scheme!        |
|     The real-space optimization is not efficient for small cells and it     |
|     is also less accurate ...                                               |
|     Therefore, set LREAL=.FALSE. in the INCAR file.                         |
|                                                                             |
 -----------------------------------------------------------------------------

 Optimization of the real space projectors (new method)

 maximal supplied QI-value         = 19.84
 optimisation between [QCUT,QGAM] = [ 11.51, 23.22] = [ 37.09,150.92] Ry 
 Optimized for a Real-space Cutoff    1.21 Angstroem

   l    n(q)    QCUT    max X(q) W(low)/X(q) W(high)/X(q)  e(spline) 
   0      8    11.508   159.560    0.71E-04    0.15E-03    0.51E-07
   0      8    11.508   115.863    0.70E-04    0.15E-03    0.51E-07
   1      8    11.508    88.339    0.16E-03    0.38E-04    0.82E-07
   1      8    11.508    48.592    0.15E-03    0.36E-04    0.79E-07
  PAW_PBE Si 05Jan2001                  :
 energy of atom  1       EATOM= -103.0669
 kinetic energy error for atom=    0.0005 (will be added to EATOM!!)
 
 
 POSCAR: Si2
  positions in direct lattice
  No initial velocities read in
 exchange correlation table for  LEXCH =        8
   RHO(1)=    0.500       N(1)  =     2000
   RHO(2)=  100.500       N(2)  =     4000
 
 POSCAR: Si2
  positions in direct lattice
  No initial velocities read in
 
 POSCAR: Si2
  positions in direct lattice
  No initial velocities read in
 


--------------------------------------------------------------------------------------------------------


 ion  position               nearest neighbor table
   1  0.750  0.750  0.750-   2 2.36   2 2.36   2 2.36   2 2.36
   2  0.000  0.000  0.000-   1 2.36   1 2.36   1 2.36   1 2.36
 
  LATTYP: Found a face centered cubic cell.
 ALAT       =     5.4437023700
  
  Lattice vectors:
  
 A1 = (  -2.7218511850,  -2.7218511850,   0.0000000000)
 A2 = (  -2.7218511850,   0.0000000000,  -2.7218511850)
 A3 = (  -0.0000000000,  -2.7218511850,  -2.7218511850)


Analysis of symmetry for initial positions (statically):
=====================================================================
 Subroutine PRICEL returns:
 Original cell was already a primitive cell.
 

 Routine SETGRP: Setting up the symmetry group for a 
 face centered cubic supercell.


 Subroutine GETGRP returns: Found 48 space group operations
 (whereof 24 operations were pure point group operations)
 out of a pool of 48 trial point group operations.


The static configuration has the point symmetry T_d .
 The point group associated with its full space group is O_h .


Analysis of symmetry for dynamics (positions and initial velocities):
=====================================================================
 Subroutine PRICEL returns:
 Original cell was already a primitive cell.
 

 Routine SETGRP: Setting up the symmetry group for a 
 face centered cubic supercell.


 Subroutine GETGRP returns: Found 48 space group operations
 (whereof 24 operations were pure point group operations)
 out of a pool of 48 trial point group operations.


The dynamic configuration has the point symmetry T_d .
 The point group associated with its full space group is O_h .


Analysis of structural, dynamic, and magnetic symmetry:
=====================================================================
 Subroutine PRICEL returns:
 Original cell was already a primitive cell.
 

 Routine SETGRP: Setting up the symmetry group for a 
 face centered cubic supercell.


 Subroutine GETGRP returns: Found 48 space group operations
 (whereof 24 operations were pure point group operations)
 out of a pool of 48 trial point group operations.


The overall configuration has the point symmetry T_d .
 The point group associated with its full space group is O_h .


 Subroutine INISYM returns: Found 48 space group operations
 (whereof 24 operations are pure point group operations),
 and found     1 'primitive' translations


----------------------------------------------------------------------------------------

                                     Primitive cell                                     

  volume of cell :      40.3295

  direct lattice vectors                    reciprocal lattice vectors
    -2.721851185 -2.721851185  0.000000000    -0.183698507 -0.183698507  0.183698507
    -2.721851185  0.000000000 -2.721851185    -0.183698507  0.183698507 -0.183698507
    -0.000000000 -2.721851185 -2.721851185     0.183698507 -0.183698507 -0.183698507

  length of vectors
     3.849278861  3.849278861  3.849278861     0.318175148  0.318175148  0.318175148

  position of ions in fractional coordinates (direct lattice)
     0.750000000  0.750000000  0.750000000
     0.000000000  0.000000000  0.000000000

  ion indices of the primitive-cell ions
   primitive index   ion index
                 1           1
                 2           2

----------------------------------------------------------------------------------------

 
 
 KPOINTS: pymatgen with grid density = 787 / numbe

Automatic generation of k-mesh.
 Grid dimensions read from file:
 generate k-points for:    7    7    7

 Generating k-lattice:

  Cartesian coordinates                     Fractional coordinates (reciprocal lattice)
    -0.026242644 -0.026242644  0.026242644     0.142857143 -0.000000000  0.000000000
    -0.026242644  0.026242644 -0.026242644     0.000000000  0.142857143  0.000000000
     0.026242644 -0.026242644 -0.026242644    -0.000000000  0.000000000  0.142857143

  Length of vectors
     0.045453593  0.045453593  0.045453593

  Shift w.r.t. Gamma in fractional coordinates (k-lattice)
     0.000000000  0.000000000  0.000000000

 TETIRR: Found     58 inequivalent tetrahedra from     2058
 
 Subroutine IBZKPT returns following result:
 ===========================================
 
 Found     20 irreducible k-points:
 
 Following reciprocal coordinates:
            Coordinates               Weight
  0.000000  0.000000  0.000000      1.000000
  0.142857  0.000000 -0.000000      8.000000
  0.285714  0.000000 -0.000000      8.000000
  0.428571  0.000000 -0.000000      8.000000
  0.142857  0.142857 -0.000000      6.000000
  0.285714  0.142857 -0.000000     24.000000
  0.428571  0.142857 -0.000000     24.000000
 -0.428571  0.142857 -0.000000     24.000000
 -0.285714  0.142857  0.000000     24.000000
 -0.142857  0.142857 -0.000000     12.000000
  0.285714  0.285714 -0.000000      6.000000
  0.428571  0.285714 -0.000000     24.000000
 -0.428571  0.285714 -0.000000     24.000000
 -0.285714  0.285714 -0.000000     12.000000
  0.428571  0.428571 -0.000000      6.000000
 -0.428571  0.428571  0.000000     12.000000
  0.428571  0.285714  0.142857     24.000000
 -0.428571  0.285714  0.142857     48.000000
 -0.428571  0.428571  0.142857     24.000000
 -0.285714  0.428571  0.142857     24.000000
 
 Following cartesian coordinates:
            Coordinates               Weight
  0.000000  0.000000  0.000000      1.000000
 -0.026243 -0.026243  0.026243      8.000000
 -0.052485 -0.052485  0.052485      8.000000
 -0.078728 -0.078728  0.078728      8.000000
 -0.052485  0.000000 -0.000000      6.000000
 -0.078728 -0.026243  0.026243     24.000000
 -0.104971 -0.052485  0.052485     24.000000
  0.052485  0.104971 -0.104971     24.000000
  0.026243  0.078728 -0.078728     24.000000
 -0.000000  0.052485 -0.052485     12.000000
 -0.104971  0.000000  0.000000      6.000000
 -0.131213 -0.026243  0.026243     24.000000
  0.026243  0.131213 -0.131213     24.000000
  0.000000  0.104971 -0.104971     12.000000
 -0.157456  0.000000 -0.000000      6.000000
  0.000000  0.157456 -0.157456     12.000000
 -0.104971 -0.052485  0.000000     24.000000
  0.052485  0.104971 -0.157456     48.000000
  0.026243  0.131213 -0.183699     24.000000
 -0.000000  0.104971 -0.157456     24.000000
 


--------------------------------------------------------------------------------------------------------




 Dimension of arrays:
   k-points           NKPTS =     20   k-points in BZ     NKDIM =     20   number of bands    NBANDS=     32
   number of dos      NEDOS =    301   number of ions     NIONS =      2
   non local maximal  LDIM  =      4   non local SUM 2l+1 LMDIM =      8
   total plane-waves  NPLWV =  27000
   max r-space proj   IRMAX =   5027   max aug-charges    IRDMAX=  22581
   dimension x,y,z NGX =    30 NGY =   30 NGZ =   30
   dimension x,y,z NGXF=    60 NGYF=   60 NGZF=   60
   support grid    NGXF=    60 NGYF=   60 NGZF=   60
   ions per type =               2
   NGX,Y,Z   is equivalent  to a cutoff of  12.96, 12.96, 12.96 a.u.
   NGXF,Y,Z  is equivalent  to a cutoff of  25.91, 25.91, 25.91 a.u.

 SYSTEM =  unknown system                          
 POSCAR =  Si2                                     

 Startparameter for this run:
   NWRITE =      2    write-flag & timer
   PREC   = accura    normal or accurate (medium, high low for compatibility)
   ISTART =      0    job   : 0-new  1-cont  2-samecut
   ICHARG =      2    charge: 1-file 2-atom 10-const
   ISPIN  =      2    spin polarized calculation?
   LNONCOLLINEAR =      F non collinear calculations
   LSORBIT =      F    spin-orbit coupling
   INIWAV =      1    electr: 0-lowe 1-rand  2-diag
   LASPH  =      T    aspherical Exc in radial PAW
 Electronic Relaxation 1
   ENCUT  =  520.0 eV  38.22 Ry    6.18 a.u.   7.16  7.16  7.16*2*pi/ulx,y,z
   ENINI  =  520.0     initial cutoff
   ENAUG  =  322.1 eV  augmentation charge cutoff
   NELM   =    100;   NELMIN=  5; NELMDL= -5     # of ELM steps 
   EDIFF  = 0.1E-03   stopping-criterion for ELM
   LREAL  =      T    real-space projection
   NLSPLINE    = F    spline interpolate recip. space projectors
   LCOMPAT=      F    compatible to vasp.4.4
   GGA_COMPAT  = T    GGA compatible to vasp.4.4-vasp.4.6
   LMAXPAW     = -100 max onsite density
   LMAXMIX     =    2 max onsite mixed and CHGCAR
   VOSKOWN=      0    Vosko Wilk Nusair interpolation
   ROPT   =   -0.00025
 Ionic relaxation
   EDIFFG = 0.1E-02   stopping-criterion for IOM
   NSW    =     99    number of steps for IOM
   NBLOCK =      1;   KBLOCK =     99    inner block; outer block 
   IBRION =      2    ionic relax: 0-MD 1-quasi-New 2-CG
   NFREE  =      1    steps in history (QN), initial steepest desc. (CG)
   ISIF   =      3    stress and relaxation
   IWAVPR =     11    prediction:  0-non 1-charg 2-wave 3-comb
   ISYM   =      2    0-nonsym 1-usesym 2-fastsym
   LCORR  =      T    Harris-Foulkes like correction to forces

   POTIM  = 0.5000    time-step for ionic-motion
   TEIN   =    0.0    initial temperature
   TEBEG  =    0.0;   TEEND  =   0.0 temperature during run
   SMASS  =  -3.00    Nose mass-parameter (am)
   estimated Nose-frequenzy (Omega)   =  0.10E-29 period in steps = 0.13E+47 mass=  -0.339E-27a.u.
   SCALEE = 1.0000    scale energy and forces
   NPACO  =    256;   APACO  = 10.0  distance and # of slots for P.C.
   PSTRESS=    0.0 pullay stress

  Mass of Ions in am
   POMASS =  28.09
  Ionic Valenz
   ZVAL   =   4.00
  Atomic Wigner-Seitz radii
   RWIGS  =  -1.00
  virtual crystal weights 
   VCA    =   1.00
   NELECT =       8.0000    total number of electrons
   NUPDOWN=      -1.0000    fix difference up-down

 DOS related values:
   EMIN   =  10.00;   EMAX   =-10.00  energy-range for DOS
   EFERMI =   0.00
   ISMEAR =    -5;   SIGMA  =   0.05  broadening in eV -4-tet -1-fermi 0-gaus

 Electronic relaxation 2 (details)
   IALGO  =     68    algorithm
   LDIAG  =      T    sub-space diagonalisation (order eigenvalues)
   LSUBROT=      F    optimize rotation matrix (better conditioning)
   TURBO    =      0    0=normal 1=particle mesh
   IRESTART =      0    0=no restart 2=restart with 2 vectors
   NREBOOT  =      0    no. of reboots
   NMIN     =      0    reboot dimension
   EREF     =   0.00    reference energy to select bands
   IMIX   =      4    mixing-type and parameters
     AMIX     =   0.40;   BMIX     =  1.00
     AMIX_MAG =   1.60;   BMIX_MAG =  1.00
     AMIN     =   0.10
     WC   =   100.;   INIMIX=   1;  MIXPRE=   1;  MAXMIX= -45

 Intra band minimization:
   WEIMIN = 0.0010     energy-eigenvalue tresh-hold
   EBREAK =  0.78E-06  absolut break condition
   DEPER  =   0.30     relativ break condition  

   TIME   =   0.40     timestep for ELM

  volume/ion in A,a.u.               =      20.16       136.08
  Fermi-wavevector in a.u.,A,eV,Ry     =   0.954766  1.804247 12.402783  0.911579
  Thomas-Fermi vector in A             =   2.083543
 
 Write flags
   LWAVE        =      F    write WAVECAR
   LDOWNSAMPLE  =      F    k-point downsampling of WAVECAR
   LCHARG       =      T    write CHGCAR
   LVTOT        =      F    write LOCPOT, total local potential
   LVHAR        =      F    write LOCPOT, Hartree potential only
   LELF         =      F    write electronic localiz. function (ELF)
   LORBIT       =     11    0 simple, 1 ext, 2 COOP (PROOUT), +10 PAW based schemes


 Dipole corrections
   LMONO  =      F    monopole corrections only (constant potential shift)
   LDIPOL =      F    correct potential (dipole corrections)
   IDIPOL =      0    1-x, 2-y, 3-z, 4-all directions 
   EPSILON=  1.0000000 bulk dielectric constant

 Exchange correlation treatment:
   GGA     =    --    GGA type
   LEXCH   =     8    internal setting for exchange type
   LIBXC   =     F    Libxc                    
   VOSKOWN =     0    Vosko Wilk Nusair interpolation
   LHFCALC =     F    Hartree Fock is set to
   LHFONE  =     F    Hartree Fock one center treatment
   AEXX    =    0.0000 exact exchange contribution

 Linear response parameters
   LEPSILON=     F    determine dielectric tensor
   LRPA    =     F    only Hartree local field effects (RPA)
   LNABLA  =     F    use nabla operator in PAW spheres
   LVEL    =     F    velocity operator in full k-point grid
   CSHIFT  =0.1000    complex shift for real part using Kramers Kronig
   OMEGAMAX=  -1.0    maximum frequency
   DEG_THRESHOLD= 0.2000000E-02 threshold for treating states as degnerate
   RTIME   =   -0.100 relaxation time in fs
  (WPLASMAI=    0.000 imaginary part of plasma frequency in eV, 0.658/RTIME)
   DFIELD  = 0.0000000 0.0000000 0.0000000 field for delta impulse in time
 
  Optional k-point grid parameters
   LKPOINTS_OPT  =     F    use optional k-point grid
   KPOINTS_OPT_MODE=     1    mode for optional k-point grid
 
 Orbital magnetization related:
   ORBITALMAG=     F  switch on orbital magnetization
   LCHIMAG   =     F  perturbation theory with respect to B field
   DQ        =  0.001000  dq finite difference perturbation B field
   LLRAUG    =     F  two centre corrections for induced B field



--------------------------------------------------------------------------------------------------------


 conjugate gradient relaxation of ions
 charge density and potential will be updated during run
 spin polarized calculation
 RMM-DIIS sequential band-by-band and
  variant of blocked Davidson during initial phase
 perform sub-space diagonalisation
    before iterative eigenvector-optimisation
 modified Broyden-mixing scheme, WC =      100.0
 initial mixing is a Kerker type mixing with AMIX =  0.4000 and BMIX =      1.0000
 Hartree-type preconditioning will be used
 using additional bands           28
 real space projection scheme for non local part
 use partial core corrections
 calculate Harris-corrections to forces 
   (improved forces if not selfconsistent)
 use gradient corrections 
 use of overlap-Matrix (Vanderbilt PP)
 Fermi weights with tetrahedron method with Bloechl corrections


--------------------------------------------------------------------------------------------------------


  energy-cutoff  :      520.00
  volume of cell :       40.33
      direct lattice vectors                 reciprocal lattice vectors
    -2.721851185 -2.721851185  0.000000000    -0.183698507 -0.183698507  0.183698507
    -2.721851185  0.000000000 -2.721851185    -0.183698507  0.183698507 -0.183698507
    -0.000000000 -2.721851185 -2.721851185     0.183698507 -0.183698507 -0.183698507

  length of vectors
     3.849278861  3.849278861  3.849278861     0.318175148  0.318175148  0.318175148


 
 k-points in units of 2pi/SCALE and weight: pymatgen with grid density = 787 / numbe
   0.00000000  0.00000000  0.00000000       0.003
  -0.02624264 -0.02624264  0.02624264       0.023
  -0.05248529 -0.05248529  0.05248529       0.023
  -0.07872793 -0.07872793  0.07872793       0.023
  -0.05248529  0.00000000 -0.00000000       0.017
  -0.07872793 -0.02624264  0.02624264       0.070
  -0.10497058 -0.05248529  0.05248529       0.070
   0.05248529  0.10497058 -0.10497058       0.070
   0.02624264  0.07872793 -0.07872793       0.070
  -0.00000000  0.05248529 -0.05248529       0.035
  -0.10497058  0.00000000  0.00000000       0.017
  -0.13121322 -0.02624264  0.02624264       0.070
   0.02624264  0.13121322 -0.13121322       0.070
   0.00000000  0.10497058 -0.10497058       0.035
  -0.15745586  0.00000000 -0.00000000       0.017
   0.00000000  0.15745586 -0.15745586       0.035
  -0.10497058 -0.05248529  0.00000000       0.070
   0.05248529  0.10497058 -0.15745586       0.140
   0.02624264  0.13121322 -0.18369851       0.070
  -0.00000000  0.10497058 -0.15745586       0.070
 
 k-points in reciprocal lattice and weights: pymatgen with grid density = 787 / numbe
   0.00000000  0.00000000  0.00000000       0.003
   0.14285714  0.00000000 -0.00000000       0.023
   0.28571429  0.00000000 -0.00000000       0.023
   0.42857143  0.00000000 -0.00000000       0.023
   0.14285714  0.14285714 -0.00000000       0.017
   0.28571429  0.14285714 -0.00000000       0.070
   0.42857143  0.14285714 -0.00000000       0.070
  -0.42857143  0.14285714 -0.00000000       0.070
  -0.28571429  0.14285714  0.00000000       0.070
  -0.14285714  0.14285714 -0.00000000       0.035
   0.28571429  0.28571429 -0.00000000       0.017
   0.42857143  0.28571429 -0.00000000       0.070
  -0.42857143  0.28571429 -0.00000000       0.070
  -0.28571429  0.28571429 -0.00000000       0.035
   0.42857143  0.42857143 -0.00000000       0.017
  -0.42857143  0.42857143  0.00000000       0.035
   0.42857143  0.28571429  0.14285714       0.070
  -0.42857143  0.28571429  0.14285714       0.140
  -0.42857143  0.42857143  0.14285714       0.070
  -0.28571429  0.42857143  0.14285714       0.070
 
 position of ions in fractional coordinates (direct lattice) 
   0.75000000  0.75000000  0.75000000
   0.00000000  0.00000000  0.00000000
 
 position of ions in cartesian coordinates  (Angst):
  -4.08277678 -4.08277678 -4.08277678
   0.00000000  0.00000000  0.00000000
 


--------------------------------------------------------------------------------------------------------


 k-point   1 :   0.0000 0.0000 0.0000  plane waves:    1067
 k-point   2 :   0.1429 0.0000-0.0000  plane waves:    1073
 k-point   3 :   0.2857 0.0000-0.0000  plane waves:    1083
 k-point   4 :   0.4286 0.0000-0.0000  plane waves:    1089
 k-point   5 :   0.1429 0.1429-0.0000  plane waves:    1074
 k-point   6 :   0.2857 0.1429-0.0000  plane waves:    1081
 k-point   7 :   0.4286 0.1429-0.0000  plane waves:    1084
 k-point   8 :  -0.4286 0.1429-0.0000  plane waves:    1086
 k-point   9 :  -0.2857 0.1429 0.0000  plane waves:    1087
 k-point  10 :  -0.1429 0.1429-0.0000  plane waves:    1073
 k-point  11 :   0.2857 0.2857-0.0000  plane waves:    1086
 k-point  12 :   0.4286 0.2857-0.0000  plane waves:    1081
 k-point  13 :  -0.4286 0.2857-0.0000  plane waves:    1095
 k-point  14 :  -0.2857 0.2857-0.0000  plane waves:    1095
 k-point  15 :   0.4286 0.4286-0.0000  plane waves:    1082
 k-point  16 :  -0.4286 0.4286 0.0000  plane waves:    1096
 k-point  17 :   0.4286 0.2857 0.1429  plane waves:    1083
 k-point  18 :  -0.4286 0.2857 0.1429  plane waves:    1092
 k-point  19 :  -0.4286 0.4286 0.1429  plane waves:    1088
 k-point  20 :  -0.2857 0.4286 0.1429  plane waves:    1090

 maximum and minimum number of plane-waves per node :      1096     1067

 maximum number of plane-waves:      1096
 maximum index in each direction: 
   IXMAX=    7   IYMAX=    7   IZMAX=    7
   IXMIN=   -7   IYMIN=   -7   IZMIN=   -7


 serial   3D FFT for wavefunctions
 parallel 3D FFT for charge:
    minimum data exchange during FFTs selected (reduces bandwidth)


 total amount of memory used by VASP MPI-rank0    34693. kBytes
=======================================================================

   base      :      30000. kBytes
   nonlr-proj:        859. kBytes
   fftplans  :        365. kBytes
   grid      :       2720. kBytes
   one-center:         12. kBytes
   wavefun   :        737. kBytes
 
     INWAV:  cpu time      0.0000: real time      0.0001
 Broyden mixing: mesh for mixing (old mesh)
   NGX = 15   NGY = 15   NGZ = 15
  (NGX  = 60   NGY  = 60   NGZ  = 60)
  gives a total of   3375 points

 initial charge density was supplied:
 charge density of overlapping atoms calculated
 number of electron       8.0000000 magnetization       1.2000000
 keeping initial charge density in first step


--------------------------------------------------------------------------------------------------------


 Maximum index for non-local projection operator         4897
 Maximum index for augmentation-charges          859 (set IRDMAX)


--------------------------------------------------------------------------------------------------------


 First call to EWALD:  gamma=   0.517
 Maximum number of real-space cells 3x 3x 3
 Maximum number of reciprocal cells 3x 3x 3

    FEWALD:  cpu time      0.0009: real time      0.0009


--------------------------------------- Iteration      1(   1)  ---------------------------------------


    POTLOK:  cpu time      0.0533: real time      0.0640
    SETDIJ:  cpu time      0.1480: real time      0.1480
     EDDAV:  cpu time      0.6065: real time      0.6614
 BZINTS: Fermi energy:    6.846052;    8.000000 electrons
         Band energy: 0.767157E+01;  BLOECHL correction:   -0.021444
       DOS:  cpu time      0.0046: real time      0.0046
    --------------------------------------------
      LOOP:  cpu time      0.8124: real time      0.8780

 eigenvalue-minimisations  :  2560
 total energy-change (2. order) :-0.5320727E+01  (-0.3117382E+03)
 number of electron       8.0000000 magnetization       1.2000000
 augmentation part        8.0000000 magnetization       1.2000000

 Free energy of the ion-electron system (eV)
  ---------------------------------------------------
  alpha Z        PSCENC =         3.33880742
  Ewald energy   TEWEN  =      -227.98820656
  -Hartree energ DENC   =       -11.11484529
  -exchange      EXHF   =         0.00000000
  -V(xc)+E(xc)   XCENC  =       -18.55186575
  PAW double counting   =       176.18363791     -140.99252705
  entropy T*S    EENTRO =         0.00000000
  eigenvalues    EBANDS =         7.67156980
  atomic energy  EATOM  =       206.13270273
  Solvation  Ecorr_sol  =         0.00000000
  ---------------------------------------------------
  free energy    TOTEN  =        -5.32072679 eV

  energy without entropy =       -5.32072679  energy(sigma->0) =       -5.32072679


--------------------------------------------------------------------------------------------------------




--------------------------------------- Iteration      1(   2)  ---------------------------------------


     EDDAV:  cpu time      0.9722: real time      0.9905
 BZINTS: Fermi energy:    5.549225;    8.000000 electrons
         Band energy: 0.217162E+01;  BLOECHL correction:   -0.000000
       DOS:  cpu time      0.0031: real time      0.0031
    --------------------------------------------
      LOOP:  cpu time      0.9753: real time      0.9936

 eigenvalue-minimisations  :  3840
 total energy-change (2. order) :-0.5499948E+01  (-0.5499353E+01)
 number of electron       8.0000000 magnetization       1.2000000
 augmentation part        8.0000000 magnetization       1.2000000

 Free energy of the ion-electron system (eV)
  ---------------------------------------------------
  alpha Z        PSCENC =         3.33880742
  Ewald energy   TEWEN  =      -227.98820656
  -Hartree energ DENC   =       -11.11484529
  -exchange      EXHF   =         0.00000000
  -V(xc)+E(xc)   XCENC  =       -18.55186575
  PAW double counting   =       176.18363791     -140.99252705
  entropy T*S    EENTRO =         0.00000000
  eigenvalues    EBANDS =         2.17162199
  atomic energy  EATOM  =       206.13270273
  Solvation  Ecorr_sol  =         0.00000000
  ---------------------------------------------------
  free energy    TOTEN  =       -10.82067460 eV

  energy without entropy =      -10.82067460  energy(sigma->0) =      -10.82067460


--------------------------------------------------------------------------------------------------------




--------------------------------------- Iteration      1(   3)  ---------------------------------------


     EDDAV:  cpu time      0.4995: real time      0.4998
 BZINTS: Fermi energy:    5.542577;    8.000000 electrons
         Band energy: 0.216218E+01;  BLOECHL correction:   -0.000000
       DOS:  cpu time      0.0032: real time      0.0032
    --------------------------------------------
      LOOP:  cpu time      0.5027: real time      0.5030

 eigenvalue-minimisations  :  2624
 total energy-change (2. order) :-0.9442061E-02  (-0.9442058E-02)
 number of electron       8.0000000 magnetization       1.2000000
 augmentation part        8.0000000 magnetization       1.2000000

 Free energy of the ion-electron system (eV)
  ---------------------------------------------------
  alpha Z        PSCENC =         3.33880742
  Ewald energy   TEWEN  =      -227.98820656
  -Hartree energ DENC   =       -11.11484529
  -exchange      EXHF   =         0.00000000
  -V(xc)+E(xc)   XCENC  =       -18.55186575
  PAW double counting   =       176.18363791     -140.99252705
  entropy T*S    EENTRO =         0.00000000
  eigenvalues    EBANDS =         2.16217993
  atomic energy  EATOM  =       206.13270273
  Solvation  Ecorr_sol  =         0.00000000
  ---------------------------------------------------
  free energy    TOTEN  =       -10.83011666 eV

  energy without entropy =      -10.83011666  energy(sigma->0) =      -10.83011666


--------------------------------------------------------------------------------------------------------




--------------------------------------- Iteration      1(   4)  ---------------------------------------


     EDDAV:  cpu time      1.4713: real time      1.4867
 BZINTS: Fermi energy:    5.543183;    8.000000 electrons
         Band energy: 0.216217E+01;  BLOECHL correction:    0.000000
       DOS:  cpu time      0.0031: real time      0.0031
    --------------------------------------------
      LOOP:  cpu time      1.4744: real time      1.4898

 eigenvalue-minimisations  :  4960
 total energy-change (2. order) :-0.7849806E-05  (-0.7854442E-05)
 number of electron       8.0000000 magnetization       1.2000000
 augmentation part        8.0000000 magnetization       1.2000000

 Free energy of the ion-electron system (eV)
  ---------------------------------------------------
  alpha Z        PSCENC =         3.33880742
  Ewald energy   TEWEN  =      -227.98820656
  -Hartree energ DENC   =       -11.11484529
  -exchange      EXHF   =         0.00000000
  -V(xc)+E(xc)   XCENC  =       -18.55186575
  PAW double counting   =       176.18363791     -140.99252705
  entropy T*S    EENTRO =         0.00000000
  eigenvalues    EBANDS =         2.16217208
  atomic energy  EATOM  =       206.13270273
  Solvation  Ecorr_sol  =         0.00000000
  ---------------------------------------------------
  free energy    TOTEN  =       -10.83012451 eV

  energy without entropy =      -10.83012451  energy(sigma->0) =      -10.83012451


--------------------------------------------------------------------------------------------------------




--------------------------------------- Iteration      1(   5)  ---------------------------------------


     EDDAV:  cpu time      0.4943: real time      0.4946
 BZINTS: Fermi energy:    5.542765;    8.000000 electrons
         Band energy: 0.216217E+01;  BLOECHL correction:   -0.000000
       DOS:  cpu time      0.0031: real time      0.0031
    CHARGE:  cpu time      0.2185: real time      0.2410
    MIXING:  cpu time      0.0005: real time      0.0005
    --------------------------------------------
      LOOP:  cpu time      0.7163: real time      0.7391

 eigenvalue-minimisations  :  2592
 total energy-change (2. order) :-0.1198259E-08  (-0.2292202E-10)
 number of electron       8.0000001 magnetization      -0.3357398
 augmentation part       -0.4704762 magnetization      -0.3323383

 Broyden mixing:
  rms(total) = 0.53156E+00    rms(broyden)= 0.53156E+00
  rms(prec ) = 0.97425E+00
  weight for this iteration     100.00

 Free energy of the ion-electron system (eV)
  ---------------------------------------------------
  alpha Z        PSCENC =         3.33880742
  Ewald energy   TEWEN  =      -227.98820656
  -Hartree energ DENC   =       -11.11484529
  -exchange      EXHF   =         0.00000000
  -V(xc)+E(xc)   XCENC  =       -18.55186575
  PAW double counting   =       176.18363791     -140.99252705
  entropy T*S    EENTRO =         0.00000000
  eigenvalues    EBANDS =         2.16217208
  atomic energy  EATOM  =       206.13270273
  Solvation  Ecorr_sol  =         0.00000000
  ---------------------------------------------------
  free energy    TOTEN  =       -10.83012451 eV

  energy without entropy =      -10.83012451  energy(sigma->0) =      -10.83012451


--------------------------------------------------------------------------------------------------------




--------------------------------------- Iteration      1(   6)  ---------------------------------------


    POTLOK:  cpu time      0.0082: real time      0.0084
    SETDIJ:  cpu time      0.1296: real time      0.1296
    EDDIAG:  cpu time      0.0970: real time      0.7850
  RMM-DIIS:  cpu time      0.0971: real time      0.0972
    ORTHCH:  cpu time      0.0089: real time      0.0089
 BZINTS: Fermi energy:    5.499748;    8.000000 electrons
         Band energy: 0.355543E+01;  BLOECHL correction:   -0.000000
       DOS:  cpu time      0.0033: real time      0.0033
    CHARGE:  cpu time      0.1729: real time      0.1735
    MIXING:  cpu time      0.0004: real time      0.0005
    --------------------------------------------
      LOOP:  cpu time      0.5175: real time      1.2063

 eigenvalue-minimisations  :  2560
 total energy-change (2. order) :-0.5181642E-01  (-0.2112170E-02)
 number of electron       8.0000001 magnetization       0.4411392
 augmentation part       -0.4642155 magnetization       0.4414198

 Broyden mixing:
  rms(total) = 0.31086E+00    rms(broyden)= 0.31086E+00
  rms(prec ) = 0.57332E+00
  weight for this iteration     100.00

 eigenvalues of (default mixing * dielectric matrix)
  average eigenvalue GAMMA=   0.9097
  0.9097

 Free energy of the ion-electron system (eV)
  ---------------------------------------------------
  alpha Z        PSCENC =         3.33880742
  Ewald energy   TEWEN  =      -227.98820656
  -Hartree energ DENC   =       -12.61103344
  -exchange      EXHF   =         0.00000000
  -V(xc)+E(xc)   XCENC  =       -18.38952691
  PAW double counting   =       375.96876121     -340.88887246
  entropy T*S    EENTRO =         0.00000000
  eigenvalues    EBANDS =         3.55542707
  atomic energy  EATOM  =       206.13270273
  Solvation  Ecorr_sol  =         0.00000000
  ---------------------------------------------------
  free energy    TOTEN  =       -10.88194093 eV

  energy without entropy =      -10.88194093  energy(sigma->0) =      -10.88194093


--------------------------------------------------------------------------------------------------------




--------------------------------------- Iteration      1(   7)  ---------------------------------------


    POTLOK:  cpu time      0.0084: real time      0.0085
    SETDIJ:  cpu time      0.1344: real time      0.1344
    EDDIAG:  cpu time      0.0920: real time      0.0920
  RMM-DIIS:  cpu time      0.0954: real time      0.0954
    ORTHCH:  cpu time      0.0087: real time      0.0087
 BZINTS: Fermi energy:    5.770412;    8.000000 electrons
         Band energy: 0.519449E+01;  BLOECHL correction:    0.000000
       DOS:  cpu time      0.0034: real time      0.0034
    CHARGE:  cpu time      0.1505: real time      0.1505
    MIXING:  cpu time      0.0004: real time      0.0004
    --------------------------------------------
      LOOP:  cpu time      0.4932: real time      0.4935

 eigenvalue-minimisations  :  2560
 total energy-change (2. order) : 0.6144329E-01  (-0.1711909E-02)
 number of electron       8.0000001 magnetization       0.0805126
 augmentation part       -0.4589098 magnetization       0.0811016

 Broyden mixing:
  rms(total) = 0.18311E+00    rms(broyden)= 0.18311E+00
  rms(prec ) = 0.22338E+00
  weight for this iteration     100.00

 eigenvalues of (default mixing * dielectric matrix)
  average eigenvalue GAMMA=   1.2762
  1.8781  0.6742

 Free energy of the ion-electron system (eV)
  ---------------------------------------------------
  alpha Z        PSCENC =         3.33880742
  Ewald energy   TEWEN  =      -227.98820656
  -Hartree energ DENC   =       -14.38394408
  -exchange      EXHF   =         0.00000000
  -V(xc)+E(xc)   XCENC  =       -18.09650362
  PAW double counting   =       710.88819112     -675.90603467
  entropy T*S    EENTRO =         0.00000000
  eigenvalues    EBANDS =         5.19449002
  atomic energy  EATOM  =       206.13270273
  Solvation  Ecorr_sol  =         0.00000000
  ---------------------------------------------------
  free energy    TOTEN  =       -10.82049764 eV

  energy without entropy =      -10.82049764  energy(sigma->0) =      -10.82049764


--------------------------------------------------------------------------------------------------------




--------------------------------------- Iteration      1(   8)  ---------------------------------------


    POTLOK:  cpu time      0.0084: real time      0.0086
    SETDIJ:  cpu time      0.1443: real time      0.1443
    EDDIAG:  cpu time      0.0935: real time      0.0935
  RMM-DIIS:  cpu time      0.0963: real time      0.0963
    ORTHCH:  cpu time      0.0085: real time      0.0085
 BZINTS: Fermi energy:    5.777172;    8.000000 electrons
         Band energy: 0.574041E+01;  BLOECHL correction:    0.000000
       DOS:  cpu time      0.0032: real time      0.0032
    CHARGE:  cpu time      0.1326: real time      0.1329
    MIXING:  cpu time      0.0003: real time      0.0003
    --------------------------------------------
      LOOP:  cpu time      0.4870: real time      0.4875

 eigenvalue-minimisations  :  2560
 total energy-change (2. order) :-0.1716487E-01  (-0.4508765E-03)
 number of electron       8.0000001 magnetization      -0.0076783
 augmentation part       -0.4573485 magnetization      -0.0073152

 Broyden mixing:
  rms(total) = 0.41468E-01    rms(broyden)= 0.41468E-01
  rms(prec ) = 0.50062E-01
  weight for this iteration     100.00

 eigenvalues of (default mixing * dielectric matrix)
  average eigenvalue GAMMA=   1.3143
  2.5296  0.7854  0.6279

 Free energy of the ion-electron system (eV)
  ---------------------------------------------------
  alpha Z        PSCENC =         3.33880742
  Ewald energy   TEWEN  =      -227.98820656
  -Hartree energ DENC   =       -15.00324405
  -exchange      EXHF   =         0.00000000
  -V(xc)+E(xc)   XCENC  =       -18.00746849
  PAW double counting   =       854.93850863     -819.98916883
  entropy T*S    EENTRO =         0.00000000
  eigenvalues    EBANDS =         5.74040663
  atomic energy  EATOM  =       206.13270273
  Solvation  Ecorr_sol  =         0.00000000
  ---------------------------------------------------
  free energy    TOTEN  =       -10.83766251 eV

  energy without entropy =      -10.83766251  energy(sigma->0) =      -10.83766251


--------------------------------------------------------------------------------------------------------




--------------------------------------- Iteration      1(   9)  ---------------------------------------


    POTLOK:  cpu time      0.0082: real time      0.0084
    SETDIJ:  cpu time      0.1509: real time      0.1509
    EDDIAG:  cpu time      0.0908: real time      0.0908
  RMM-DIIS:  cpu time      0.0933: real time      0.0933
    ORTHCH:  cpu time      0.0088: real time      0.0088
 BZINTS: Fermi energy:    5.764999;    8.000000 electrons
         Band energy: 0.575777E+01;  BLOECHL correction:    0.000000
       DOS:  cpu time      0.0033: real time      0.0033
    CHARGE:  cpu time      0.0784: real time      0.0784
    MIXING:  cpu time      0.0004: real time      0.0004
    --------------------------------------------
      LOOP:  cpu time      0.4340: real time      0.4342

 eigenvalue-minimisations  :  2560
 total energy-change (2. order) :-0.1089960E-02  (-0.3922515E-04)
 number of electron       8.0000001 magnetization      -0.0003795
 augmentation part       -0.4575927 magnetization      -0.0002528

 Broyden mixing:
  rms(total) = 0.97028E-02    rms(broyden)= 0.97028E-02
  rms(prec ) = 0.21788E-01
  weight for this iteration     100.00

 eigenvalues of (default mixing * dielectric matrix)
  average eigenvalue GAMMA=   1.2959
  2.4059  1.3577  0.7781  0.6419

 Free energy of the ion-electron system (eV)
  ---------------------------------------------------
  alpha Z        PSCENC =         3.33880742
  Ewald energy   TEWEN  =      -227.98820656
  -Hartree energ DENC   =       -15.03457332
  -exchange      EXHF   =         0.00000000
  -V(xc)+E(xc)   XCENC  =       -17.99939382
  PAW double counting   =       868.76975472     -833.81561828
  entropy T*S    EENTRO =         0.00000000
  eigenvalues    EBANDS =         5.75777464
  atomic energy  EATOM  =       206.13270273
  Solvation  Ecorr_sol  =         0.00000000
  ---------------------------------------------------
  free energy    TOTEN  =       -10.83875247 eV

  energy without entropy =      -10.83875247  energy(sigma->0) =      -10.83875247


--------------------------------------------------------------------------------------------------------




--------------------------------------- Iteration      1(  10)  ---------------------------------------


    POTLOK:  cpu time      0.0083: real time      0.0085
    SETDIJ:  cpu time      0.1384: real time      0.1384
    EDDIAG:  cpu time      0.0913: real time      0.0913
  RMM-DIIS:  cpu time      0.0939: real time      0.0939
    ORTHCH:  cpu time      0.0089: real time      0.0089
 BZINTS: Fermi energy:    5.755424;    8.000000 electrons
         Band energy: 0.571268E+01;  BLOECHL correction:   -0.000000
       DOS:  cpu time      0.0033: real time      0.0033
    CHARGE:  cpu time      0.0233: real time      0.0233
    MIXING:  cpu time      0.0004: real time      0.0004
    --------------------------------------------
      LOOP:  cpu time      0.3677: real time      0.3679

 eigenvalue-minimisations  :  2558
 total energy-change (2. order) :-0.3637065E-03  (-0.1764323E-04)
 number of electron       8.0000001 magnetization       0.0006684
 augmentation part       -0.4580587 magnetization       0.0006357

 Broyden mixing:
  rms(total) = 0.44674E-02    rms(broyden)= 0.44674E-02
  rms(prec ) = 0.77639E-02
  weight for this iteration     100.00

 eigenvalues of (default mixing * dielectric matrix)
  average eigenvalue GAMMA=   1.3345
  2.3292  1.8862  1.0380  0.6412  0.7781

 Free energy of the ion-electron system (eV)
  ---------------------------------------------------
  alpha Z        PSCENC =         3.33880742
  Ewald energy   TEWEN  =      -227.98820656
  -Hartree energ DENC   =       -15.00312390
  -exchange      EXHF   =         0.00000000
  -V(xc)+E(xc)   XCENC  =       -17.99915579
  PAW double counting   =       865.33261544     -830.36543870
  entropy T*S    EENTRO =         0.00000000
  eigenvalues    EBANDS =         5.71268318
  atomic energy  EATOM  =       206.13270273
  Solvation  Ecorr_sol  =         0.00000000
  ---------------------------------------------------
  free energy    TOTEN  =       -10.83911617 eV

  energy without entropy =      -10.83911617  energy(sigma->0) =      -10.83911617


--------------------------------------------------------------------------------------------------------




--------------------------------------- Iteration      1(  11)  ---------------------------------------


    POTLOK:  cpu time      0.0081: real time      0.0083
    SETDIJ:  cpu time      0.1563: real time      0.1563
    EDDIAG:  cpu time      0.0928: real time      0.0930
  RMM-DIIS:  cpu time      0.0893: real time      0.0893
    ORTHCH:  cpu time      0.0090: real time      0.0090
 BZINTS: Fermi energy:    5.757795;    8.000000 electrons
         Band energy: 0.573221E+01;  BLOECHL correction:    0.000000
       DOS:  cpu time      0.0032: real time      0.0032
    --------------------------------------------
      LOOP:  cpu time      0.3588: real time      0.3592

 eigenvalue-minimisations  :  2294
 total energy-change (2. order) :-0.8022292E-04  (-0.6060037E-05)
 number of electron       8.0000001 magnetization       0.0006684
 augmentation part       -0.4580587 magnetization       0.0006357

 Free energy of the ion-electron system (eV)
  ---------------------------------------------------
  alpha Z        PSCENC =         3.33880742
  Ewald energy   TEWEN  =      -227.98820656
  -Hartree energ DENC   =       -15.02828285
  -exchange      EXHF   =         0.00000000
  -V(xc)+E(xc)   XCENC  =       -17.99462447
  PAW double counting   =       864.69173058     -829.72353561
  entropy T*S    EENTRO =         0.00000000
  eigenvalues    EBANDS =         5.73221235
  atomic energy  EATOM  =       206.13270273
  Solvation  Ecorr_sol  =         0.00000000
  ---------------------------------------------------
  free energy    TOTEN  =       -10.83919640 eV

  energy without entropy =      -10.83919640  energy(sigma->0) =      -10.83919640


--------------------------------------------------------------------------------------------------------




 average (electrostatic) potential at core
  the test charge radii are     0.9892
  (the norm of the test charge is              1.0000)
       1 -83.3254       2 -83.3254
 
 
 
 E-fermi :   5.7578     XC(G=0):  -9.3809     alpha+bet :-11.8943

 Fermi energy:         5.7577951887

 spin component 1

 k-point     1 :       0.0000    0.0000    0.0000
  band No.  band energies     occupation 
      1      -6.1524      1.00000
      2       5.7577      1.00000
      3       5.7577      1.00000
      4       5.7577      1.00000
      5       8.3174      0.00000
      6       8.3174      0.00000
      7       8.3174      0.00000
      8       9.0476      0.00000
      9      13.4711      0.00000
     10      13.4711      0.00000
     11      13.6849      0.00000
     12      16.9814      0.00000
     13      16.9814      0.00000
     14      16.9814      0.00000
     15      21.1115      0.00000
     16      28.7734      0.00000
     17      28.7734      0.00000
     18      28.7734      0.00000
     19      29.8683      0.00000
     20      29.8683      0.00000
     21      31.4251      0.00000
     22      31.4251      0.00000
     23      31.4251      0.00000
     24      34.8624      0.00000
     25      34.8624      0.00000
     26      34.8624      0.00000
     27      40.5331      0.00000
     28      40.5331      0.00000
     29      40.5331      0.00000
     30      43.9138      0.00000
     31      44.3360      0.00000
     32      44.3360      0.00000

 k-point     2 :       0.1429    0.0000   -0.0000
  band No.  band energies     occupation 
      1      -5.8879      1.00000
      2       3.8307      1.00000
      3       5.4032      1.00000
      4       5.4032      1.00000
      5       8.1769      0.00000
      6       8.8355      0.00000
      7       8.8355      0.00000
      8      10.7251      0.00000
      9      12.9155      0.00000
     10      12.9155      0.00000
     11      14.6387      0.00000
     12      16.3658      0.00000
     13      18.4322      0.00000
     14      18.4322      0.00000
     15      22.6412      0.00000
     16      26.2791      0.00000
     17      26.2791      0.00000
     18      26.7218      0.00000
     19      29.5398      0.00000
     20      29.5398      0.00000
     21      32.0074      0.00000
     22      32.0074      0.00000
     23      33.1048      0.00000
     24      35.1015      0.00000
     25      37.5013      0.00000
     26      37.5013      0.00000
     27      37.6170      0.00000
     28      39.8643      0.00000
     29      39.8643      0.00000
     30      41.9150      0.00000
     31      41.9151      0.00000
     32      43.9776      0.00000

 k-point     3 :       0.2857    0.0000   -0.0000
  band No.  band energies     occupation 
      1      -5.1258      1.00000
      2       1.2226      1.00000
      3       4.8904      1.00000
      4       4.8904      1.00000
      5       7.6380      0.00000
      6       9.2878      0.00000
      7       9.2878      0.00000
      8      13.1696      0.00000
      9      13.2053      0.00000
     10      13.2053      0.00000
     11      14.6319      0.00000
     12      18.3196      0.00000
     13      20.7304      0.00000
     14      20.7304      0.00000
     15      23.0373      0.00000
     16      23.0373      0.00000
     17      23.1886      0.00000
     18      26.4397      0.00000
     19      29.7400      0.00000
     20      29.7400      0.00000
     21      32.3803      0.00000
     22      32.3803      0.00000
     23      32.4844      0.00000
     24      35.2928      0.00000
     25      35.7529      0.00000
     26      36.4237      0.00000
     27      36.4237      0.00000
     28      38.8313      0.00000
     29      38.8313      0.00000
     30      39.9345      0.00000
     31      39.9345      0.00000
     32      42.8194      0.00000

 k-point     4 :       0.4286    0.0000   -0.0000
  band No.  band energies     occupation 
      1      -4.0920      1.00000
      2      -0.7978      1.00000
      3       4.6031      1.00000
      4       4.6031      1.00000
      5       7.3125      0.00000
      6       9.1382      0.00000
      7       9.1382      0.00000
      8      13.5335      0.00000
      9      15.2157      0.00000
     10      15.2157      0.00000
     11      16.2651      0.00000
     12      18.2782      0.00000
     13      18.2782      0.00000
     14      19.3899      0.00000
     15      23.2805      0.00000
     16      25.5752      0.00000
     17      25.5752      0.00000
     18      27.6750      0.00000
     19      28.9283      0.00000
     20      28.9283      0.00000
     21      30.1812      0.00000
     22      32.2889      0.00000
     23      32.2889      0.00000
     24      33.2842      0.00000
     25      33.2842      0.00000
     26      34.9125      0.00000
     27      36.4863      0.00000
     28      38.0848      0.00000
     29      38.0848      0.00000
     30      38.7873      0.00000
     31      38.7873      0.00000
     32      39.6924      0.00000

 k-point     5 :       0.1429    0.1429   -0.0000
  band No.  band energies     occupation 
      1      -5.7984      1.00000
      2       4.1223      1.00000
      3       4.7927      1.00000
      4       4.7927      1.00000
      5       7.6395      0.00000
      6       9.7149      0.00000
      7       9.7149      0.00000
      8      10.1443      0.00000
      9      12.2023      0.00000
     10      13.8643      0.00000
     11      15.0569      0.00000
     12      17.5939      0.00000
     13      17.5939      0.00000
     14      18.1254      0.00000
     15      23.4071      0.00000
     16      25.8003      0.00000
     17      25.8003      0.00000
     18      27.0052      0.00000
     19      28.0128      0.00000
     20      29.2550      0.00000
     21      32.2473      0.00000
     22      32.6557      0.00000
     23      32.6557      0.00000
     24      37.3510      0.00000
     25      37.3510      0.00000
     26      37.8556      0.00000
     27      38.3256      0.00000
     28      38.3256      0.00000
     29      38.4350      0.00000
     30      40.3563      0.00000
     31      42.3109      0.00000
     32      43.5911      0.00000

 k-point     6 :       0.2857    0.1429   -0.0000
  band No.  band energies     occupation 
      1      -5.1948      1.00000
      2       2.0098      1.00000
      3       4.2112      1.00000
      4       4.2533      1.00000
      5       7.8320      0.00000
      6       9.6428      0.00000
      7      10.3130      0.00000
      8      10.4962      0.00000
      9      13.8775      0.00000
     10      14.2478      0.00000
     11      15.9527      0.00000
     12      17.8157      0.00000
     13      19.2470      0.00000
     14      20.6755      0.00000
     15      22.4480      0.00000
     16      23.0984      0.00000
     17      25.4475      0.00000
     18      26.8207      0.00000
     19      27.1927      0.00000
     20      28.7338      0.00000
     21      31.7879      0.00000
     22      33.0323      0.00000
     23      33.2490      0.00000
     24      35.4792      0.00000
     25      36.3687      0.00000
     26      36.6856      0.00000
     27      37.8629      0.00000
     28      38.2119      0.00000
     29      39.0131      0.00000
     30      39.7455      0.00000
     31      41.2926      0.00000
     32      41.6827      0.00000

 k-point     7 :       0.4286    0.1429   -0.0000
  band No.  band energies     occupation 
      1      -4.1919      1.00000
      2      -0.1635      1.00000
      3       3.5258      1.00000
      4       4.0652      1.00000
      5       7.8951      0.00000
      6       9.5675      0.00000
      7      10.2820      0.00000
      8      11.5283      0.00000
      9      15.2058      0.00000
     10      15.9717      0.00000
     11      16.6495      0.00000
     12      17.9623      0.00000
     13      18.7614      0.00000
     14      21.4129      0.00000
     15      23.2348      0.00000
     16      23.3087      0.00000
     17      25.0099      0.00000
     18      27.2052      0.00000
     19      27.9294      0.00000
     20      29.3402      0.00000
     21      30.1274      0.00000
     22      30.5684      0.00000
     23      33.1007      0.00000
     24      33.9330      0.00000
     25      34.5502      0.00000
     26      35.3769      0.00000
     27      36.1156      0.00000
     28      36.8225      0.00000
     29      38.4676      0.00000
     30      38.9865      0.00000
     31      40.1277      0.00000
     32      41.1276      0.00000

 k-point     8 :      -0.4286    0.1429   -0.0000
  band No.  band energies     occupation 
      1      -3.6371      1.00000
      2      -1.0227      1.00000
      3       3.1140      1.00000
      4       4.2618      1.00000
      5       7.9922      0.00000
      6       9.4790      0.00000
      7       9.8882      0.00000
      8      13.9056      0.00000
      9      14.4272      0.00000
     10      14.7841      0.00000
     11      16.7110      0.00000
     12      18.8729      0.00000
     13      19.4118      0.00000
     14      19.9538      0.00000
     15      23.8567      0.00000
     16      25.6742      0.00000
     17      26.2580      0.00000
     18      26.4092      0.00000
     19      27.4946      0.00000
     20      27.6529      0.00000
     21      30.5585      0.00000
     22      31.4429      0.00000
     23      32.1230      0.00000
     24      33.1276      0.00000
     25      33.3456      0.00000
     26      34.6123      0.00000
     27      35.4845      0.00000
     28      36.3397      0.00000
     29      38.4834      0.00000
     30      39.2332      0.00000
     31      39.4991      0.00000
     32      40.7825      0.00000

 k-point     9 :      -0.2857    0.1429    0.0000
  band No.  band energies     occupation 
      1      -4.5582      1.00000
      2       0.5130      1.00000
      3       3.1190      1.00000
      4       4.7727      1.00000
      5       8.3919      0.00000
      6       9.6507      0.00000
      7       9.6800      0.00000
      8      12.3858      0.00000
      9      12.5031      0.00000
     10      15.5790      0.00000
     11      16.9018      0.00000
     12      17.9465      0.00000
     13      19.8592      0.00000
     14      21.6555      0.00000
     15      21.9264      0.00000
     16      23.2572      0.00000
     17      24.9462      0.00000
     18      27.4958      0.00000
     19      27.9796      0.00000
     20      28.9920      0.00000
     21      30.4661      0.00000
     22      31.6566      0.00000
     23      33.0051      0.00000
     24      34.2520      0.00000
     25      34.7300      0.00000
     26      35.7773      0.00000
     27      36.0420      0.00000
     28      37.7989      0.00000
     29      39.2803      0.00000
     30      39.6930      0.00000
     31      39.7671      0.00000
     32      42.2414      0.00000

 k-point    10 :      -0.1429    0.1429   -0.0000
  band No.  band energies     occupation 
      1      -5.4541      1.00000
      2       2.6267      1.00000
      3       3.8062      1.00000
      4       5.3622      1.00000
      5       8.7955      0.00000
      6       9.0456      0.00000
      7       9.3014      0.00000
      8      11.3620      0.00000
      9      11.9667      0.00000
     10      14.2538      0.00000
     11      15.8236      0.00000
     12      17.0243      0.00000
     13      18.4859      0.00000
     14      20.8656      0.00000
     15      22.4628      0.00000
     16      24.2563      0.00000
     17      26.5047      0.00000
     18      26.5451      0.00000
     19      26.9518      0.00000
     20      28.5016      0.00000
     21      32.2374      0.00000
     22      32.4595      0.00000
     23      34.8813      0.00000
     24      35.2407      0.00000
     25      36.4142      0.00000
     26      37.1814      0.00000
     27      38.2952      0.00000
     28      38.8048      0.00000
     29      39.6806      0.00000
     30      39.9222      0.00000
     31      40.9629      0.00000
     32      41.2306      0.00000

 k-point    11 :       0.2857    0.2857   -0.0000
  band No.  band energies     occupation 
      1      -4.7532      1.00000
      2       1.6028      1.00000
      3       3.6346      1.00000
      4       3.6346      1.00000
      5       6.6950      0.00000
      6       8.3713      0.00000
      7      12.1238      0.00000
      8      12.1238      0.00000
      9      14.5062      0.00000
     10      15.0411      0.00000
     11      17.8887      0.00000
     12      19.0983      0.00000
     13      19.0983      0.00000
     14      19.9943      0.00000
     15      22.4409      0.00000
     16      22.4409      0.00000
     17      23.0918      0.00000
     18      25.4265      0.00000
     19      27.5830      0.00000
     20      31.4023      0.00000
     21      31.4118      0.00000
     22      32.4964      0.00000
     23      32.4964      0.00000
     24      34.4079      0.00000
     25      34.5682      0.00000
     26      34.5682      0.00000
     27      34.5927      0.00000
     28      40.6624      0.00000
     29      40.7700      0.00000
     30      41.8944      0.00000
     31      41.8979      0.00000
     32      42.4284      0.00000

 k-point    12 :       0.4286    0.2857   -0.0000
  band No.  band energies     occupation 
      1      -3.8555      1.00000
      2       0.1068      1.00000
      3       2.6617      1.00000
      4       3.3761      1.00000
      5       6.9774      0.00000
      6       8.4584      0.00000
      7      12.3479      0.00000
      8      12.5163      0.00000
      9      16.6213      0.00000
     10      16.9724      0.00000
     11      17.3793      0.00000
     12      17.9399      0.00000
     13      19.8555      0.00000
     14      20.7683      0.00000
     15      22.0045      0.00000
     16      23.5967      0.00000
     17      23.6829      0.00000
     18      25.2500      0.00000
     19      27.6218      0.00000
     20      28.3292      0.00000
     21      30.6905      0.00000
     22      30.7401      0.00000
     23      31.4444      0.00000
     24      33.1785      0.00000
     25      33.8440      0.00000
     26      34.6687      0.00000
     27      36.6447      0.00000
     28      38.3016      0.00000
     29      38.4887      0.00000
     30      40.5622      0.00000
     31      41.7406      0.00000
     32      42.5691      0.00000

 k-point    13 :      -0.4286    0.2857   -0.0000
  band No.  band energies     occupation 
      1      -2.9436      1.00000
      2      -1.0652      1.00000
      3       1.7138      1.00000
      4       3.5439      1.00000
      5       7.2164      0.00000
      6      10.6913      0.00000
      7      12.0184      0.00000
      8      12.0870      0.00000
      9      14.7798      0.00000
     10      14.7958      0.00000
     11      19.1142      0.00000
     12      19.4708      0.00000
     13      19.9802      0.00000
     14      23.1002      0.00000
     15      23.2568      0.00000
     16      23.6539      0.00000
     17      23.9531      0.00000
     18      25.6854      0.00000
     19      26.1578      0.00000
     20      28.2352      0.00000
     21      29.6609      0.00000
     22      30.0039      0.00000
     23      30.2018      0.00000
     24      33.6506      0.00000
     25      33.9247      0.00000
     26      34.4555      0.00000
     27      34.9781      0.00000
     28      36.4536      0.00000
     29      38.5497      0.00000
     30      39.9396      0.00000
     31      41.0678      0.00000
     32      41.2038      0.00000

 k-point    14 :      -0.2857    0.2857   -0.0000
  band No.  band energies     occupation 
      1      -3.5901      1.00000
      2      -0.3179      1.00000
      3       1.6403      1.00000
      4       4.0900      1.00000
      5       7.8200      0.00000
      6      11.1983      0.00000
      7      11.5316      0.00000
      8      12.3441      0.00000
      9      12.6341      0.00000
     10      13.8807      0.00000
     11      19.0502      0.00000
     12      19.6719      0.00000
     13      20.5785      0.00000
     14      22.2523      0.00000
     15      22.5072      0.00000
     16      23.5221      0.00000
     17      23.6891      0.00000
     18      26.2202      0.00000
     19      28.3725      0.00000
     20      28.8818      0.00000
     21      29.7502      0.00000
     22      31.1057      0.00000
     23      31.2924      0.00000
     24      32.4550      0.00000
     25      33.7008      0.00000
     26      34.5180      0.00000
     27      34.9251      0.00000
     28      35.4194      0.00000
     29      39.9453      0.00000
     30      40.4680      0.00000
     31      41.3566      0.00000
     32      42.6758      0.00000

 k-point    15 :       0.4286    0.4286   -0.0000
  band No.  band energies     occupation 
      1      -3.0750      1.00000
      2      -0.8865      1.00000
      3       3.0063      1.00000
      4       3.0063      1.00000
      5       6.3408      0.00000
      6       6.8565      0.00000
      7      14.7665      0.00000
      8      14.7665      0.00000
      9      16.9915      0.00000
     10      17.4782      0.00000
     11      17.7698      0.00000
     12      17.7698      0.00000
     13      19.4816      0.00000
     14      19.6930      0.00000
     15      22.8940      0.00000
     16      23.6804      0.00000
     17      23.6804      0.00000
     18      24.7057      0.00000
     19      27.6103      0.00000
     20      27.9514      0.00000
     21      27.9514      0.00000
     22      29.0716      0.00000
     23      30.2405      0.00000
     24      32.0961      0.00000
     25      34.9416      0.00000
     26      34.9416      0.00000
     27      36.9877      0.00000
     28      40.1439      0.00000
     29      40.1439      0.00000
     30      41.0344      0.00000
     31      41.3270      0.00000
     32      41.6526      0.00000

 k-point    16 :      -0.4286    0.4286    0.0000
  band No.  band energies     occupation 
      1      -2.1303      1.00000
      2      -1.8413      1.00000
      3       2.1184      1.00000
      4       3.0675      1.00000
      5       6.6418      0.00000
      6       7.8957      0.00000
      7      14.5454      0.00000
      8      14.9862      0.00000
      9      15.1793      0.00000
     10      15.4634      0.00000
     11      19.4552      0.00000
     12      19.5152      0.00000
     13      19.6312      0.00000
     14      20.5368      0.00000
     15      22.8187      0.00000
     16      23.2500      0.00000
     17      25.4442      0.00000
     18      26.0674      0.00000
     19      26.3086      0.00000
     20      27.1642      0.00000
     21      27.6027      0.00000
     22      28.6995      0.00000
     23      29.5957      0.00000
     24      30.7738      0.00000
     25      35.0951      0.00000
     26      36.7430      0.00000
     27      36.8466      0.00000
     28      37.9710      0.00000
     29      40.0472      0.00000
     30      40.2190      0.00000
     31      41.0161      0.00000
     32      41.6831      0.00000

 k-point    17 :       0.4286    0.2857    0.1429
  band No.  band energies     occupation 
      1      -4.4463      1.00000
      2       0.8713      1.00000
      3       2.6648      1.00000
      4       3.9823      1.00000
      5       8.3378      0.00000
      6       9.5861      0.00000
      7       9.8856      0.00000
      8      11.8788      0.00000
      9      13.9834      0.00000
     10      16.6970      0.00000
     11      17.1174      0.00000
     12      18.2669      0.00000
     13      19.4636      0.00000
     14      21.2075      0.00000
     15      21.3758      0.00000
     16      24.2678      0.00000
     17      24.3356      0.00000
     18      26.3911      0.00000
     19      27.0529      0.00000
     20      30.2778      0.00000
     21      30.3426      0.00000
     22      30.5276      0.00000
     23      32.1363      0.00000
     24      34.2889      0.00000
     25      34.4536      0.00000
     26      36.7487      0.00000
     27      37.3545      0.00000
     28      37.4684      0.00000
     29      38.6018      0.00000
     30      38.9437      0.00000
     31      40.7770      0.00000
     32      41.6623      0.00000

 k-point    18 :      -0.4286    0.2857    0.1429
  band No.  band energies     occupation 
      1      -3.4104      1.00000
      2      -0.6528      1.00000
      3       2.0945      1.00000
      4       3.4490      1.00000
      5       8.8215      0.00000
      6       9.2337      0.00000
      7      11.2127      0.00000
      8      12.3303      0.00000
      9      14.0651      0.00000
     10      15.7136      0.00000
     11      17.9202      0.00000
     12      19.1477      0.00000
     13      20.3082      0.00000
     14      21.7285      0.00000
     15      23.1919      0.00000
     16      23.9584      0.00000
     17      24.7822      0.00000
     18      26.2408      0.00000
     19      27.0275      0.00000
     20      28.2118      0.00000
     21      29.3345      0.00000
     22      30.1662      0.00000
     23      31.9801      0.00000
     24      33.2271      0.00000
     25      33.8595      0.00000
     26      34.5084      0.00000
     27      36.1596      0.00000
     28      37.0657      0.00000
     29      37.4728      0.00000
     30      38.5878      0.00000
     31      39.7809      0.00000
     32      41.5715      0.00000

 k-point    19 :      -0.4286    0.4286    0.1429
  band No.  band energies     occupation 
      1      -2.8716      1.00000
      2      -0.9727      1.00000
      3       2.1846      1.00000
      4       2.5937      1.00000
      5       7.9690      0.00000
      6       8.3369      0.00000
      7      11.8897      0.00000
      8      14.3966      0.00000
      9      14.8681      0.00000
     10      16.7749      0.00000
     11      18.1790      0.00000
     12      19.7598      0.00000
     13      20.2970      0.00000
     14      21.1842      0.00000
     15      22.4963      0.00000
     16      23.2409      0.00000
     17      25.0401      0.00000
     18      26.3742      0.00000
     19      26.6673      0.00000
     20      26.8467      0.00000
     21      28.5280      0.00000
     22      29.0956      0.00000
     23      30.5353      0.00000
     24      31.9061      0.00000
     25      34.9880      0.00000
     26      35.8944      0.00000
     27      36.9616      0.00000
     28      37.5300      0.00000
     29      37.6417      0.00000
     30      38.4836      0.00000
     31      40.0821      0.00000
     32      43.2292      0.00000

 k-point    20 :      -0.2857    0.4286    0.1429
  band No.  band energies     occupation 
      1      -2.4376      1.00000
      2      -1.3676      1.00000
      3       1.5494      1.00000
      4       2.6849      1.00000
      5       8.4937      0.00000
      6      10.5911      0.00000
      7      11.3839      0.00000
      8      11.5273      0.00000
      9      14.7994      0.00000
     10      15.9668      0.00000
     11      18.9054      0.00000
     12      20.1941      0.00000
     13      21.0073      0.00000
     14      22.1394      0.00000
     15      23.3263      0.00000
     16      24.1385      0.00000
     17      24.4692      0.00000
     18      24.7755      0.00000
     19      26.1293      0.00000
     20      27.1865      0.00000
     21      28.3949      0.00000
     22      30.2029      0.00000
     23      32.0955      0.00000
     24      32.4076      0.00000
     25      32.8063      0.00000
     26      34.2144      0.00000
     27      36.4867      0.00000
     28      36.5817      0.00000
     29      37.5791      0.00000
     30      37.7790      0.00000
     31      41.0925      0.00000
     32      42.8729      0.00000
 Fermi energy:         5.7577951887

 spin component 2

 k-point     1 :       0.0000    0.0000    0.0000
  band No.  band energies     occupation 
      1      -6.1535      1.00000
      2       5.7549      1.00000
      3       5.7549      1.00000
      4       5.7549      1.00000
      5       8.3191      0.00000
      6       8.3191      0.00000
      7       8.3191      0.00000
      8       9.0469      0.00000
      9      13.4724      0.00000
     10      13.4724      0.00000
     11      13.6790      0.00000
     12      16.9832      0.00000
     13      16.9832      0.00000
     14      16.9832      0.00000
     15      21.1029      0.00000
     16      28.7733      0.00000
     17      28.7733      0.00000
     18      28.7733      0.00000
     19      29.8699      0.00000
     20      29.8699      0.00000
     21      31.4229      0.00000
     22      31.4229      0.00000
     23      31.4229      0.00000
     24      34.8631      0.00000
     25      34.8631      0.00000
     26      34.8631      0.00000
     27      40.5337      0.00000
     28      40.5337      0.00000
     29      40.5337      0.00000
     30      43.9031      0.00000
     31      44.3374      0.00000
     32      44.3375      0.00000

 k-point     2 :       0.1429    0.0000   -0.0000
  band No.  band energies     occupation 
      1      -5.8889      1.00000
      2       3.8290      1.00000
      3       5.4009      1.00000
      4       5.4009      1.00000
      5       8.1772      0.00000
      6       8.8367      0.00000
      7       8.8367      0.00000
      8      10.7238      0.00000
      9      12.9168      0.00000
     10      12.9168      0.00000
     11      14.6339      0.00000
     12      16.3653      0.00000
     13      18.4340      0.00000
     14      18.4340      0.00000
     15      22.6349      0.00000
     16      26.2790      0.00000
     17      26.2790      0.00000
     18      26.7205      0.00000
     19      29.5407      0.00000
     20      29.5407      0.00000
     21      32.0058      0.00000
     22      32.0058      0.00000
     23      33.1036      0.00000
     24      35.1021      0.00000
     25      37.5023      0.00000
     26      37.5023      0.00000
     27      37.6153      0.00000
     28      39.8651      0.00000
     29      39.8651      0.00000
     30      41.9154      0.00000
     31      41.9158      0.00000
     32      43.9786      0.00000

 k-point     3 :       0.2857    0.0000   -0.0000
  band No.  band energies     occupation 
      1      -5.1269      1.00000
      2       1.2213      1.00000
      3       4.8884      1.00000
      4       4.8884      1.00000
      5       7.6377      0.00000
      6       9.2891      0.00000
      7       9.2891      0.00000
      8      13.1678      0.00000
      9      13.2063      0.00000
     10      13.2063      0.00000
     11      14.6289      0.00000
     12      18.3159      0.00000
     13      20.7327      0.00000
     14      20.7327      0.00000
     15      23.0368      0.00000
     16      23.0368      0.00000
     17      23.1877      0.00000
     18      26.4344      0.00000
     19      29.7409      0.00000
     20      29.7409      0.00000
     21      32.3789      0.00000
     22      32.3789      0.00000
     23      32.4827      0.00000
     24      35.2911      0.00000
     25      35.7533      0.00000
     26      36.4253      0.00000
     27      36.4253      0.00000
     28      38.8310      0.00000
     29      38.8310      0.00000
     30      39.9351      0.00000
     31      39.9351      0.00000
     32      42.8178      0.00000

 k-point     4 :       0.4286    0.0000   -0.0000
  band No.  band energies     occupation 
      1      -4.0932      1.00000
      2      -0.7988      1.00000
      3       4.6012      1.00000
      4       4.6012      1.00000
      5       7.3119      0.00000
      6       9.1397      0.00000
      7       9.1397      0.00000
      8      13.5314      0.00000
      9      15.2165      0.00000
     10      15.2165      0.00000
     11      16.2612      0.00000
     12      18.2789      0.00000
     13      18.2789      0.00000
     14      19.3873      0.00000
     15      23.2790      0.00000
     16      25.5762      0.00000
     17      25.5762      0.00000
     18      27.6729      0.00000
     19      28.9296      0.00000
     20      28.9296      0.00000
     21      30.1763      0.00000
     22      32.2892      0.00000
     23      32.2892      0.00000
     24      33.2832      0.00000
     25      33.2832      0.00000
     26      34.9104      0.00000
     27      36.4861      0.00000
     28      38.0844      0.00000
     29      38.0844      0.00000
     30      38.7882      0.00000
     31      38.7882      0.00000
     32      39.6915      0.00000

 k-point     5 :       0.1429    0.1429   -0.0000
  band No.  band energies     occupation 
      1      -5.7994      1.00000
      2       4.1201      1.00000
      3       4.7910      1.00000
      4       4.7910      1.00000
      5       7.6402      0.00000
      6       9.7154      0.00000
      7       9.7154      0.00000
      8      10.1438      0.00000
      9      12.2026      0.00000
     10      13.8656      0.00000
     11      15.0518      0.00000
     12      17.5958      0.00000
     13      17.5958      0.00000
     14      18.1240      0.00000
     15      23.4021      0.00000
     16      25.7995      0.00000
     17      25.7995      0.00000
     18      27.0065      0.00000
     19      28.0126      0.00000
     20      29.2546      0.00000
     21      32.2472      0.00000
     22      32.6544      0.00000
     23      32.6544      0.00000
     24      37.3514      0.00000
     25      37.3514      0.00000
     26      37.8568      0.00000
     27      38.3262      0.00000
     28      38.3262      0.00000
     29      38.4316      0.00000
     30      40.3564      0.00000
     31      42.3132      0.00000
     32      43.5928      0.00000

 k-point     6 :       0.2857    0.1429   -0.0000
  band No.  band energies     occupation 
      1      -5.1959      1.00000
      2       2.0083      1.00000
      3       4.2096      1.00000
      4       4.2519      1.00000
      5       7.8321      0.00000
      6       9.6434      0.00000
      7      10.3128      0.00000
      8      10.4967      0.00000
      9      13.8766      0.00000
     10      14.2490      0.00000
[...]
     13      19.6299      0.00000
     14      20.5173      0.00000
     15      21.7721      0.00000
     16      23.3356      0.00000
     17      23.4207      0.00000
     18      24.9213      0.00000
     19      27.3053      0.00000
     20      28.0289      0.00000
     21      30.3595      0.00000
     22      30.3910      0.00000
     23      31.0990      0.00000
     24      32.8401      0.00000
     25      33.4931      0.00000
     26      34.2702      0.00000
     27      36.2516      0.00000
     28      37.9147      0.00000
     29      38.0666      0.00000
     30      40.1380      0.00000
     31      41.3110      0.00000
     32      42.1033      0.00000

 k-point    13 :      -0.4286    0.2857   -0.0000
  band No.  band energies     occupation 
      1      -3.0328      1.00000
      2      -1.1646      1.00000
      3       1.6316      1.00000
      4       3.4323      1.00000
      5       7.0933      0.00000
      6      10.5383      0.00000
      7      11.8456      0.00000
      8      11.8737      0.00000
      9      14.5510      0.00000
     10      14.6202      0.00000
     11      18.9033      0.00000
     12      19.2453      0.00000
     13      19.6703      0.00000
     14      22.8351      0.00000
     15      22.9963      0.00000
     16      23.3583      0.00000
     17      23.6517      0.00000
     18      25.3894      0.00000
     19      25.8850      0.00000
     20      27.9188      0.00000
     21      29.3492      0.00000
     22      29.6773      0.00000
     23      29.8798      0.00000
     24      33.3105      0.00000
     25      33.5753      0.00000
     26      34.0732      0.00000
     27      34.5720      0.00000
     28      36.0757      0.00000
     29      38.1622      0.00000
     30      39.5261      0.00000
     31      40.6231      0.00000
     32      40.7728      0.00000

 k-point    14 :      -0.2857    0.2857   -0.0000
  band No.  band energies     occupation 
      1      -3.6690      1.00000
      2      -0.4279      1.00000
      3       1.5611      1.00000
      4       3.9707      1.00000
      5       7.6836      0.00000
      6      11.0231      0.00000
      7      11.3604      0.00000
      8      12.1221      0.00000
      9      12.4951      0.00000
     10      13.6728      0.00000
     11      18.8362      0.00000
     12      19.4511      0.00000
     13      20.2866      0.00000
     14      22.0107      0.00000
     15      22.2065      0.00000
     16      23.2317      0.00000
     17      23.4161      0.00000
     18      25.8892      0.00000
     19      28.0737      0.00000
     20      28.5960      0.00000
     21      29.4384      0.00000
     22      30.7467      0.00000
     23      30.9631      0.00000
     24      32.1277      0.00000
     25      33.3182      0.00000
     26      34.1705      0.00000
     27      34.5236      0.00000
     28      35.0418      0.00000
     29      39.5414      0.00000
     30      40.0367      0.00000
     31      40.9135      0.00000
     32      42.2238      0.00000

 k-point    15 :       0.4286    0.4286   -0.0000
  band No.  band energies     occupation 
      1      -3.1572      1.00000
      2      -0.9960      1.00000
      3       2.9021      1.00000
      4       2.9021      1.00000
      5       6.2281      0.00000
      6       6.7450      0.00000
      7      14.5439      0.00000
      8      14.5439      0.00000
      9      16.8106      0.00000
     10      17.1662      0.00000
     11      17.5512      0.00000
     12      17.5512      0.00000
     13      19.1861      0.00000
     14      19.4856      0.00000
     15      22.6651      0.00000
     16      23.4263      0.00000
     17      23.4263      0.00000
     18      24.3941      0.00000
     19      27.3174      0.00000
     20      27.6530      0.00000
     21      27.6530      0.00000
     22      28.7228      0.00000
     23      29.9197      0.00000
     24      31.7472      0.00000
     25      34.5385      0.00000
     26      34.5385      0.00000
     27      36.6250      0.00000
     28      39.7166      0.00000
     29      39.7166      0.00000
     30      40.5985      0.00000
     31      40.9056      0.00000
     32      41.2299      0.00000

 k-point    16 :      -0.4286    0.4286    0.0000
  band No.  band energies     occupation 
      1      -2.2273      1.00000
      2      -1.9383      1.00000
      3       2.0327      1.00000
      4       2.9624      1.00000
      5       6.5285      0.00000
      6       7.7653      0.00000
      7      14.3236      0.00000
      8      14.7320      0.00000
      9      14.9738      0.00000
     10      15.2937      0.00000
     11      19.2026      0.00000
     12      19.2478      0.00000
     13      19.3977      0.00000
     14      20.2414      0.00000
     15      22.5757      0.00000
     16      23.0053      0.00000
     17      25.1601      0.00000
     18      25.7906      0.00000
     19      26.0312      0.00000
     20      26.8535      0.00000
     21      27.2820      0.00000
     22      28.3712      0.00000
     23      29.2787      0.00000
     24      30.4526      0.00000
     25      34.6894      0.00000
     26      36.3425      0.00000
     27      36.4389      0.00000
     28      37.5905      0.00000
     29      39.6145      0.00000
     30      39.8159      0.00000
     31      40.6001      0.00000
     32      41.2695      0.00000

 k-point    17 :       0.4286    0.2857    0.1429
  band No.  band energies     occupation 
      1      -4.5121      1.00000
      2       0.7475      1.00000
      3       2.5695      1.00000
      4       3.8657      1.00000
      5       8.1945      0.00000
      6       9.4301      0.00000
      7       9.7235      0.00000
      8      11.6921      0.00000
      9      13.7884      0.00000
     10      16.4726      0.00000
     11      16.8599      0.00000
     12      18.0740      0.00000
     13      19.2374      0.00000
     14      20.9699      0.00000
     15      21.1200      0.00000
     16      23.9778      0.00000
     17      24.0611      0.00000
     18      26.1048      0.00000
     19      26.7205      0.00000
     20      29.9574      0.00000
     21      30.0320      0.00000
     22      30.1557      0.00000
     23      31.7893      0.00000
     24      33.9148      0.00000
     25      34.0721      0.00000
     26      36.3747      0.00000
     27      36.9479      0.00000
     28      37.0551      0.00000
     29      38.2140      0.00000
     30      38.5442      0.00000
     31      40.3421      0.00000
     32      41.2333      0.00000

 k-point    18 :      -0.4286    0.2857    0.1429
  band No.  band energies     occupation 
      1      -3.4923      1.00000
      2      -0.7538      1.00000
      3       2.0019      1.00000
      4       3.3426      1.00000
      5       8.6759      0.00000
      6       9.0801      0.00000
      7      11.0404      0.00000
      8      12.1435      0.00000
      9      13.8650      0.00000
     10      15.5042      0.00000
     11      17.7119      0.00000
     12      18.8983      0.00000
     13      20.0311      0.00000
     14      21.4833      0.00000
     15      22.8968      0.00000
     16      23.6782      0.00000
     17      24.5014      0.00000
     18      25.9601      0.00000
     19      26.6991      0.00000
     20      27.9142      0.00000
     21      29.0152      0.00000
     22      29.8438      0.00000
     23      31.6151      0.00000
     24      32.8865      0.00000
     25      33.5144      0.00000
     26      34.1284      0.00000
     27      35.7889      0.00000
     28      36.6557      0.00000
     29      37.0938      0.00000
     30      38.1901      0.00000
     31      39.3529      0.00000
     32      41.1338      0.00000

 k-point    19 :      -0.4286    0.4286    0.1429
  band No.  band energies     occupation 
      1      -2.9582      1.00000
      2      -1.0828      1.00000
      3       2.0969      1.00000
      4       2.5016      1.00000
      5       7.8345      0.00000
      6       8.2048      0.00000
      7      11.7023      0.00000
      8      14.1727      0.00000
      9      14.6736      0.00000
     10      16.5433      0.00000
     11      17.9399      0.00000
     12      19.5057      0.00000
     13      20.0181      0.00000
     14      20.9645      0.00000
     15      22.2417      0.00000
     16      22.9608      0.00000
     17      24.7702      0.00000
     18      26.0930      0.00000
     19      26.3537      0.00000
     20      26.5266      0.00000
     21      28.2409      0.00000
     22      28.7499      0.00000
     23      30.1902      0.00000
     24      31.5894      0.00000
     25      34.6043      0.00000
     26      35.5188      0.00000
     27      36.5569      0.00000
     28      37.1524      0.00000
     29      37.2544      0.00000
     30      38.0633      0.00000
     31      39.6592      0.00000
     32      42.7829      0.00000

 k-point    20 :      -0.2857    0.4286    0.1429
  band No.  band energies     occupation 
      1      -2.5333      1.00000
      2      -1.4715      1.00000
      3       1.4745      1.00000
      4       2.5910      1.00000
      5       8.3556      0.00000
      6      10.4461      0.00000
      7      11.1908      0.00000
      8      11.3478      0.00000
      9      14.5852      0.00000
     10      15.7486      0.00000
     11      18.6508      0.00000
     12      19.9321      0.00000
     13      20.7810      0.00000
     14      21.8979      0.00000
     15      23.0240      0.00000
     16      23.8438      0.00000
     17      24.1774      0.00000
     18      24.4908      0.00000
     19      25.8425      0.00000
     20      26.8773      0.00000
     21      28.0838      0.00000
     22      29.8610      0.00000
     23      31.7790      0.00000
     24      32.0766      0.00000
     25      32.4746      0.00000
     26      33.8208      0.00000
     27      36.1214      0.00000
     28      36.1873      0.00000
     29      37.1655      0.00000
     30      37.3858      0.00000
     31      40.6659      0.00000
     32      42.4418      0.00000


--------------------------------------------------------------------------------------------------------


 soft charge-density along one line, spin component           1
         0         1         2         3         4         5         6         7         8         9
 total charge-density along one line
 
 soft charge-density along one line, spin component           2
         0         1         2         3         4         5         6         7         8         9
 total charge-density along one line
 
 pseudopotential strength for first ion, spin component:           1
 18.437  25.723   0.000   0.000   0.000   0.000   0.000   0.000
 25.723  35.892   0.000   0.000   0.000   0.000   0.000   0.000
  0.000   0.000   4.181  -0.000  -0.000   7.790  -0.000  -0.000
  0.000   0.000  -0.000   4.181  -0.000  -0.000   7.790  -0.000
  0.000   0.000  -0.000  -0.000   4.181  -0.000  -0.000   7.790
  0.000   0.000   7.790  -0.000  -0.000  14.528  -0.000  -0.000
  0.000   0.000  -0.000   7.790  -0.000  -0.000  14.528  -0.000
  0.000   0.000  -0.000  -0.000   7.790  -0.000  -0.000  14.528
 pseudopotential strength for first ion, spin component:           2
 18.437  25.723  -0.000  -0.000  -0.000  -0.000  -0.000  -0.000
 25.723  35.892  -0.000  -0.000  -0.000  -0.000  -0.000  -0.000
 -0.000  -0.000   4.181  -0.000  -0.000   7.790  -0.000  -0.000
 -0.000  -0.000  -0.000   4.181  -0.000  -0.000   7.790  -0.000
 -0.000  -0.000  -0.000  -0.000   4.181  -0.000  -0.000   7.790
 -0.000  -0.000   7.790  -0.000  -0.000  14.528  -0.000  -0.000
 -0.000  -0.000  -0.000   7.790  -0.000  -0.000  14.528  -0.000
 -0.000  -0.000  -0.000  -0.000   7.790  -0.000  -0.000  14.528
 total augmentation occupancy for first ion, spin component:           1
  5.531  -2.064   0.000  -0.000  -0.000   0.000   0.000  -0.000
 -2.064   0.884  -0.000   0.000  -0.000   0.000   0.000   0.000
  0.000   0.000   2.908   0.000   0.000  -0.650  -0.000  -0.000
 -0.000  -0.000   0.000   2.908  -0.000  -0.000  -0.650   0.000
 -0.000  -0.000   0.000  -0.000   2.908  -0.000   0.000  -0.650
  0.000  -0.000  -0.650  -0.000  -0.000   0.154   0.000   0.000
 -0.000   0.000  -0.000  -0.650   0.000   0.000   0.154  -0.000
 -0.000   0.000  -0.000   0.000  -0.650   0.000  -0.000   0.154
 total augmentation occupancy for first ion, spin component:           2
  0.000  -0.000  -0.000   0.000   0.000   0.000   0.000   0.000
 -0.000   0.000   0.000   0.000  -0.000  -0.000   0.000  -0.000
 -0.000   0.000   0.000   0.000   0.000  -0.000  -0.000  -0.000
  0.000   0.000   0.000   0.000   0.000  -0.000  -0.000   0.000
  0.000  -0.000   0.000   0.000   0.000  -0.000  -0.000  -0.000
  0.000  -0.000  -0.000  -0.000  -0.000   0.000  -0.000   0.000
  0.000   0.000  -0.000  -0.000  -0.000  -0.000   0.000   0.000
  0.000  -0.000  -0.000   0.000  -0.000   0.000   0.000   0.000


------------------------ aborting loop because EDIFF is reached ----------------------------------------





 total charge

# of ion       s       p       d       tot
------------------------------------------
    1        0.750   0.929   0.000   1.679
    2        0.750   0.929   0.000   1.679
--------------------------------------------------
tot          1.499   1.859   0.000   3.358



 magnetization (x)

# of ion       s       p       d       tot
------------------------------------------
    1        0.000   0.000   0.000   0.000
    2        0.000   0.000   0.000   0.000
--------------------------------------------------
tot          0.000   0.000   0.000   0.000
 
    CHARGE:  cpu time      0.0216: real time      0.0216
    FORLOC:  cpu time      0.0001: real time      0.0001
    FORNL :  cpu time      0.0640: real time      0.0640
    STRESS:  cpu time      0.1876: real time      0.1876
    FORCOR:  cpu time      0.0070: real time      0.4379
    FORHAR:  cpu time      0.0007: real time      0.0007
    MIXING:  cpu time      0.0003: real time      0.0003
    OFIELD:  cpu time      0.0000: real time      0.0000

  FORCE on cell =-STRESS in cart. coord.  units (eV):
  Direction    XX          YY          ZZ          XY          YZ          ZX
  --------------------------------------------------------------------------------------
  Alpha Z     3.29226     3.29226     3.29226
  Ewald     -75.64130   -75.64130   -75.64130     0.00000     0.00000     0.00000
  Hartree     5.06722     5.06722     5.06722     0.00000     0.00000     0.00000
  E(xc)     -25.24939   -25.24939   -25.24939     0.00000     0.00000     0.00000
  Local     -29.52560   -29.52560   -29.52560     0.00000     0.00000     0.00000
  n-local    73.95170    79.64595    78.65147    -1.15043     2.25206     0.63371
  augment   -11.63432   -11.63432   -11.63432    -0.00000    -0.00000    -0.00000
  Kinetic    54.45441    56.11824    58.25047    -0.83670     3.52946     0.97160
  Fock        0.00000     0.00000     0.00000     0.00000     0.00000     0.00000
  -------------------------------------------------------------------------------------
  Total      -0.00038    -0.00038    -0.00038     0.00000    -0.00000    -0.00000
  in kB      -0.01486    -0.01486    -0.01486     0.00000    -0.00000    -0.00000
  external pressure =       -0.01 kB  Pullay stress =        0.00 kB


 VOLUME and BASIS-vectors are now :
 -----------------------------------------------------------------------------
  energy-cutoff  :      520.00
  volume of cell :       40.90
      direct lattice vectors                 reciprocal lattice vectors
    -2.734618237 -2.734618237 -0.000000000    -0.182840878 -0.182840878  0.182840878
    -2.734618237 -0.000000000 -2.734618237    -0.182840878  0.182840878 -0.182840878
    -0.000000000 -2.734618237 -2.734618237     0.182840878 -0.182840878 -0.182840878

  length of vectors
     3.867334198  3.867334198  3.867334198     0.316689691  0.316689691  0.316689691


 FORCES acting on ions
    electron-ion (+dipol)            ewald-force                    non-local-force                 convergence-correction
 -----------------------------------------------------------------------------------------------
   -.800E-08 -.557E-08 -.557E-08   0.228E-13 -.156E-14 -.373E-15   0.436E-16 0.244E-16 0.244E-16   -.161E-08 -.161E-08 -.161E-08
   0.800E-08 0.557E-08 0.557E-08   -.222E-13 0.148E-14 0.434E-15   -.445E-16 -.196E-16 -.474E-16   0.161E-08 0.161E-08 0.161E-08
 -----------------------------------------------------------------------------------------------
   0.192E-12 -.481E-13 -.112E-12   0.535E-15 -.734E-16 0.610E-16   -.919E-18 0.478E-17 -.230E-16   -.110E-14 0.529E-14 0.659E-14
 
 
 POSITION                                       TOTAL-FORCE (eV/Angst)
 -----------------------------------------------------------------------------------
     -4.10193     -4.10193     -4.10193         0.000000      0.000000     -0.000000
     -0.00000     -0.00000     -0.00000        -0.000000     -0.000000      0.000000
 -----------------------------------------------------------------------------------
    total drift:                                0.000000     -0.000000     -0.000000


--------------------------------------------------------------------------------------------------------



  FREE ENERGIE OF THE ION-ELECTRON SYSTEM (eV)
  ---------------------------------------------------
  free  energy   TOTEN  =       -10.84131822 eV

  energy  without entropy=      -10.84131822  energy(sigma->0) =      -10.84131822
 
 d Force = 0.0000000E+00[ 0.000E+00, 0.000E+00]  d Energy = 0.8578672E-03-0.858E-03
 d Force = 0.0000000E+00[ 0.000E+00, 0.000E+00]  d Ewald  = 0.6525777E+00-0.653E+00


--------------------------------------------------------------------------------------------------------


    POTLOK:  cpu time      0.1384: real time      0.1399


--------------------------------------------------------------------------------------------------------




--------------------------------------------------------------------------------------------------------


  
 reached required accuracy - stopping structural energy minimisation
     LOOP+:  cpu time      3.0001: real time      3.6329
    4ORBIT:  cpu time      0.0000: real time      0.0000



 total charge

# of ion       s       p       d       tot
------------------------------------------
    1        0.750   0.929   0.000   1.679
    2        0.750   0.929   0.000   1.679
--------------------------------------------------
tot          1.499   1.859   0.000   3.358



 magnetization (x)

# of ion       s       p       d       tot
------------------------------------------
    1        0.000   0.000   0.000   0.000
    2        0.000   0.000   0.000   0.000
--------------------------------------------------
tot          0.000   0.000   0.000   0.000
 
 BZINTS: Fermi energy:    5.617190;    8.000000 electrons
         Band energy: 0.493950E+01;  BLOECHL correction:    0.000000

 total amount of memory used by VASP MPI-rank0    34693. kBytes
=======================================================================

   base      :      30000. kBytes
   nonlr-proj:        859. kBytes
   fftplans  :        365. kBytes
   grid      :       2720. kBytes
   one-center:         12. kBytes
   wavefun   :        737. kBytes
 
  
  
 General timing and accounting informations for this job:
 ========================================================
  
                  Total CPU time used (sec):       16.718
                            User time (sec):       15.844
                          System time (sec):        0.874
                         Elapsed time (sec):       19.545
  
                   Maximum memory used (kb):      209228.
                   Average memory used (kb):          N/A
  
                          Minor page faults:        27617
                          Major page faults:         1317
                 Voluntary context switches:         3056
