<?xml version="1.0" encoding="ISO-8859-1"?>
<modeling>
 <generator>
  <i name="program" type="string">vasp </i>
  <i name="version" type="string">6.3.2  </i>
  <i name="subversion" type="string">27Jun22 (build May 29 2024 20:51:42) complex                          parallel </i>
  <i name="platform" type="string">LinuxIFC </i>
  <i name="date" type="string">2026 05 24 </i>
  <i name="time" type="string">12:00:55 </i>
 </generator>
 <incar>
  <i type="string" name="PREC">Accurate</i>
  <i type="string" name="ALGO">Fast</i>
  <i type="int" name="ISPIN">     2</i>
  <i type="int" name="NELM">   100</i>
  <i type="int" name="NELMIN">     5</i>
  <i type="int" name="IBRION">     2</i>
  <i name="EDIFF">      0.00010000</i>
  <i type="int" name="NSW">    99</i>
  <i type="int" name="ISIF">     3</i>
  <i name="ENCUT">    520.00000000</i>
  <v name="MAGMOM">      0.60000000      0.60000000</v>
  <i type="string" name="LREAL">Auto</i>
  <i type="int" name="ISMEAR">    -5</i>
  <i name="SIGMA">      0.05000000</i>
  <i type="logical" name="LWAVE"> F  </i>
  <i type="int" name="LORBIT">    11</i>
  <i type="logical" name="LASPH"> T  </i>
 </incar>
 <primitive_cell>
  <structure name="primitive_cell" >
   <crystal>
    <varray name="basis" >
     <v>      -2.72185119      -2.72185118       0.00000000 </v>
     <v>      -2.72185118       0.00000000      -2.72185118 </v>
     <v>      -0.00000000      -2.72185118      -2.72185118 </v>
    </varray>
    <i name="volume">     40.32952678 </i>
    <varray name="rec_basis" >
     <v>      -0.18369851      -0.18369851       0.18369851 </v>
     <v>      -0.18369851       0.18369851      -0.18369851 </v>
     <v>       0.18369851      -0.18369851      -0.18369851 </v>
    </varray>
   </crystal>
   <varray name="positions" >
    <v>       0.75000000       0.75000000       0.75000000 </v>
    <v>       0.00000000       0.00000000       0.00000000 </v>
   </varray>
  </structure>
  <varray name="primitive_index" >
   <v type="int" >        1 </v>
   <v type="int" >        2 </v>
  </varray>
 </primitive_cell>
 <kpoints>
  <generation param="Gamma">
   <v type="int" name="divisions">       7        7        7 </v>
   <v name="usershift">      0.00000000       0.00000000       0.00000000 </v>
   <v name="genvec1">      0.14285714      -0.00000000       0.00000000 </v>
   <v name="genvec2">      0.00000000       0.14285714       0.00000000 </v>
   <v name="genvec3">     -0.00000000       0.00000000       0.14285714 </v>
   <v name="shift">      0.00000000       0.00000000       0.00000000 </v>
  </generation>
  <varray name="kpointlist" >
   <v>       0.00000000       0.00000000       0.00000000 </v>
   <v>       0.14285714       0.00000000      -0.00000000 </v>
   <v>       0.28571429       0.00000000      -0.00000000 </v>
   <v>       0.42857143       0.00000000      -0.00000000 </v>
   <v>       0.14285714       0.14285714      -0.00000000 </v>
   <v>       0.28571429       0.14285714      -0.00000000 </v>
   <v>       0.42857143       0.14285714      -0.00000000 </v>
   <v>      -0.42857143       0.14285714      -0.00000000 </v>
   <v>      -0.28571429       0.14285714       0.00000000 </v>
   <v>      -0.14285714       0.14285714      -0.00000000 </v>
   <v>       0.28571429       0.28571429      -0.00000000 </v>
   <v>       0.42857143       0.28571429      -0.00000000 </v>
   <v>      -0.42857143       0.28571429      -0.00000000 </v>
   <v>      -0.28571429       0.28571429      -0.00000000 </v>
   <v>       0.42857143       0.42857143      -0.00000000 </v>
   <v>      -0.42857143       0.42857143       0.00000000 </v>
   <v>       0.42857143       0.28571429       0.14285714 </v>
   <v>      -0.42857143       0.28571429       0.14285714 </v>
   <v>      -0.42857143       0.42857143       0.14285714 </v>
   <v>      -0.28571429       0.42857143       0.14285714 </v>
  </varray>
  <varray name="weights" >
   <v>       0.00291545 </v>
   <v>       0.02332362 </v>
   <v>       0.02332362 </v>
   <v>       0.02332362 </v>
   <v>       0.01749271 </v>
   <v>       0.06997085 </v>
   <v>       0.06997085 </v>
   <v>       0.06997085 </v>
   <v>       0.06997085 </v>
   <v>       0.03498542 </v>
   <v>       0.01749271 </v>
   <v>       0.06997085 </v>
   <v>       0.06997085 </v>
   <v>       0.03498542 </v>
   <v>       0.01749271 </v>
   <v>       0.03498542 </v>
   <v>       0.06997085 </v>
   <v>       0.13994169 </v>
   <v>       0.06997085 </v>
   <v>       0.06997085 </v>
  </varray>
  <varray name="tetrahedronlist"  type="int" >
   <v type="int" >       48        2        3        6       10 </v>
   <v type="int" >       48        6        9       10       17 </v>
   <v type="int" >       24        9        9       10       17 </v>
   <v type="int" >       48        3        6        9       10 </v>
   <v type="int" >       48        9       14       17       18 </v>
   <v type="int" >       48        8        9       14       18 </v>
   <v type="int" >       24        9        9       14       17 </v>
   <v type="int" >       48        8       13       18       18 </v>
   <v type="int" >       48        7        8       13       18 </v>
   <v type="int" >       48        8       13       14       18 </v>
   <v type="int" >       48        7       12       17       18 </v>
   <v type="int" >       48        6        7       12       17 </v>
   <v type="int" >       48        7       12       13       18 </v>
   <v type="int" >       24        6        6       11       17 </v>
   <v type="int" >       24        5        6        6       11 </v>
   <v type="int" >       48        6       11       12       17 </v>
   <v type="int" >       24        5        6        6       10 </v>
   <v type="int" >       48        2        5        6       10 </v>
   <v type="int" >       48        6        7        9       17 </v>
   <v type="int" >       48        3        6        7        9 </v>
   <v type="int" >       48       12       17       18       19 </v>
   <v type="int" >       24       17       18       18       19 </v>
   <v type="int" >       24       14       17       18       18 </v>
   <v type="int" >       48        7        9       17       18 </v>
   <v type="int" >       48       18       19       20       20 </v>
   <v type="int" >       24       18       18       20       20 </v>
   <v type="int" >       48       13       18       18       20 </v>
   <v type="int" >       24       18       18       19       20 </v>
   <v type="int" >       24       14       18       18       20 </v>
   <v type="int" >       48       13       14       18       20 </v>
   <v type="int" >       48       13       18       19       20 </v>
   <v type="int" >       48       12       13       18       19 </v>
   <v type="int" >       24       12       12       17       19 </v>
   <v type="int" >       24       11       12       12       17 </v>
   <v type="int" >       24        6        6       10       17 </v>
   <v type="int" >       48       12       13       16       19 </v>
   <v type="int" >       24       16       19       19       20 </v>
   <v type="int" >       12       19       19       20       20 </v>
   <v type="int" >       24       19       20       20       20 </v>
   <v type="int" >       48       13       16       19       20 </v>
   <v type="int" >        6       20       20       20       20 </v>
   <v type="int" >       48        7        8        8       18 </v>
   <v type="int" >       48        7        8        9       18 </v>
   <v type="int" >       24       13       13       16       20 </v>
   <v type="int" >       24        8        8       18       18 </v>
   <v type="int" >       24        2        2        5       10 </v>
   <v type="int" >       48        3        4        7        9 </v>
   <v type="int" >       48        4        7        8        9 </v>
   <v type="int" >       24       13       13       14       20 </v>
   <v type="int" >       24       12       12       15       19 </v>
   <v type="int" >       24       11       12       12       15 </v>
   <v type="int" >       48       12       15       16       19 </v>
   <v type="int" >       48        4        7        8        8 </v>
   <v type="int" >       12       16       16       19       19 </v>
   <v type="int" >       24       15       16       16       19 </v>
   <v type="int" >       24        4        4        8        8 </v>
   <v type="int" >       12       15       15       16       16 </v>
   <v type="int" >       24        1        2        2        5 </v>
  </varray>
  <i name="volumeweight">      0.00048591 </i>
 </kpoints>
 <parameters>
  <separator name="general" >
   <i type="string" name="SYSTEM">unknown system</i>
   <i type="logical" name="LCOMPAT"> F  </i>
  </separator>
  <separator name="electronic" >
   <i type="string" name="PREC">accura</i>
   <i name="ENMAX">    520.00000000</i>
   <i name="ENAUG">    322.06900000</i>
   <i name="EDIFF">      0.00010000</i>
   <i type="int" name="IALGO">    68</i>
   <i type="int" name="IWAVPR">    11</i>
   <i type="int" name="NBANDS">    32</i>
   <i type="int" name="NBANDSLOW">    -1</i>
   <i type="int" name="NBANDSHIGH">    -1</i>
   <i name="NELECT">      8.00000000</i>
   <i type="int" name="TURBO">     0</i>
   <i type="int" name="IRESTART">     0</i>
   <i type="int" name="NREBOOT">     0</i>
   <i type="int" name="NMIN">     0</i>
   <i name="EREF">      0.00000000</i>
   <separator name="electronic smearing" >
    <i type="int" name="ISMEAR">    -5</i>
    <i name="SIGMA">      0.05000000</i>
    <i name="KSPACING">      0.50000000</i>
    <i type="logical" name="KGAMMA"> T  </i>
    <i type="logical" name="KBLOWUP"> T  </i>
   </separator>
   <separator name="electronic projectors" >
    <i type="logical" name="LREAL"> T  </i>
    <v name="ROPT">     -0.00025000</v>
    <i type="int" name="LMAXPAW">  -100</i>
    <i type="int" name="LMAXMIX">     2</i>
    <i type="logical" name="NLSPLINE"> F  </i>
   </separator>
   <separator name="electronic startup" >
    <i type="int" name="ISTART">     0</i>
    <i type="int" name="ICHARG">     2</i>
    <i type="int" name="INIWAV">     1</i>
   </separator>
   <separator name="electronic spin" >
    <i type="int" name="ISPIN">     2</i>
    <i type="logical" name="LNONCOLLINEAR"> F  </i>
    <v name="MAGMOM">      0.60000000      0.60000000</v>
    <i name="NUPDOWN">     -1.00000000</i>
    <i type="logical" name="LSORBIT"> F  </i>
    <v name="SAXIS">      0.00000000      0.00000000      1.00000000</v>
    <i type="logical" name="LSPIRAL"> F  </i>
    <v name="QSPIRAL">      0.00000000      0.00000000      0.00000000</v>
    <i type="logical" name="LZEROZ"> F  </i>
   </separator>
   <separator name="electronic exchange-correlation" >
    <i type="logical" name="LASPH"> T  </i>
    <i type="logical" name="LMETAGGA"> F  </i>
   </separator>
   <separator name="electronic convergence" >
    <i type="int" name="NELM">   100</i>
    <i type="int" name="NELMDL">    -5</i>
    <i type="int" name="NELMIN">     5</i>
    <i name="ENINI">    520.00000000</i>
    <separator name="electronic convergence detail" >
     <i type="logical" name="LDIAG"> T  </i>
     <i type="logical" name="LSUBROT"> F  </i>
     <i name="WEIMIN">      0.00100000</i>
     <i name="EBREAK">      0.00000078</i>
     <i name="DEPER">      0.30000000</i>
     <i type="int" name="NRMM">     4</i>
     <i name="TIME">      0.40000000</i>
    </separator>
   </separator>
   <separator name="electronic mixer" >
    <i name="AMIX">      0.40000000</i>
    <i name="BMIX">      1.00000000</i>
    <i name="AMIN">      0.10000000</i>
    <i name="AMIX_MAG">      1.60000000</i>
    <i name="BMIX_MAG">      1.00000000</i>
    <separator name="electronic mixer details" >
     <i type="int" name="IMIX">     4</i>
     <i type="logical" name="MIXFIRST"> F  </i>
     <i type="int" name="MAXMIX">   -45</i>
     <i name="WC">    100.00000000</i>
     <i type="int" name="INIMIX">     1</i>
     <i type="int" name="MIXPRE">     1</i>
     <i type="int" name="MREMOVE">     5</i>
    </separator>
   </separator>
   <separator name="electronic dipolcorrection" >
    <i type="logical" name="LDIPOL"> F  </i>
    <i type="logical" name="LMONO"> F  </i>
    <i type="int" name="IDIPOL">     0</i>
    <i name="EPSILON">      1.00000000</i>
    <v name="DIPOL">   -100.00000000   -100.00000000   -100.00000000</v>
    <i name="EFIELD">      0.00000000</i>
   </separator>
  </separator>
  <separator name="grids" >
   <i type="int" name="NGX">    30</i>
   <i type="int" name="NGY">    30</i>
   <i type="int" name="NGZ">    30</i>
   <i type="int" name="NGXF">    60</i>
   <i type="int" name="NGYF">    60</i>
   <i type="int" name="NGZF">    60</i>
   <i type="logical" name="ADDGRID"> F  </i>
  </separator>
  <separator name="ionic" >
   <i type="int" name="NSW">    99</i>
   <i type="int" name="IBRION">     2</i>
   <i type="int" name="MDALGO">     0</i>
   <i type="int" name="ISIF">     3</i>
   <i name="PSTRESS">      0.00000000</i>
   <i name="EDIFFG">      0.00100000</i>
   <i type="int" name="NFREE">     1</i>
   <i name="POTIM">      0.50000000</i>
   <i name="SMASS">     -3.00000000</i>
   <i name="SCALEE">      1.00000000</i>
  </separator>
  <separator name="ionic md" >
   <i name="TEBEG">      0.00010000</i>
   <i name="TEEND">      0.00010000</i>
   <i type="int" name="NBLOCK">     1</i>
   <i type="int" name="KBLOCK">    99</i>
   <i type="int" name="NPACO">   256</i>
   <i name="APACO">     10.00000000</i>
  </separator>
  <separator name="symmetry" >
   <i type="int" name="ISYM">     2</i>
   <i name="SYMPREC">      0.00001000</i>
  </separator>
  <separator name="dos" >
   <i type="int" name="LORBIT">    11</i>
   <v name="RWIGS">     -1.00000000</v>
   <i type="int" name="NEDOS">   301</i>
   <i name="EMIN">     10.00000000</i>
   <i name="EMAX">    -10.00000000</i>
   <i name="EFERMI">      0.00000000</i>
  </separator>
  <separator name="writing" >
   <i type="int" name="NWRITE">     2</i>
   <i type="logical" name="LWAVE"> F  </i>
   <i type="logical" name="LDOWNSAMPLE"> F  </i>
   <i type="logical" name="LCHARG"> T  </i>
   <i type="logical" name="LPARD"> F  </i>
   <i type="logical" name="LVTOT"> F  </i>
   <i type="logical" name="LVHAR"> F  </i>
   <i type="logical" name="LELF"> F  </i>
   <i type="logical" name="LOPTICS"> F  </i>
   <v name="STM">      0.00000000      0.00000000      0.00000000      0.00000000      0.00000000      0.00000000      0.00000000</v>
  </separator>
  <separator name="performance" >
   <i type="int" name="NPAR">    32</i>
   <i type="int" name="NSIM">     4</i>
   <i type="int" name="NBLK">    -1</i>
   <i type="logical" name="LPLANE"> T  </i>
   <i type="logical" name="LSCALAPACK"> T  </i>
   <i type="logical" name="LSCAAWARE"> F  </i>
   <i type="logical" name="LSCALU"> F  </i>
   <i type="logical" name="LASYNC"> F  </i>
   <i type="logical" name="LORBITALREAL"> F  </i>
  </separator>
  <separator name="miscellaneous" >
   <i type="int" name="IDIOT">     3</i>
   <i type="int" name="PHON_NSTRUCT">    -1</i>
   <i type="logical" name="LMUSIC"> F  </i>
   <v name="POMASS">     28.08500000</v>
   <v name="DARWINR">      0.00000000</v>
   <v name="DARWINV">      1.00000000</v>
   <i type="logical" name="LCORR"> T  </i>
  </separator>
  <i type="logical" name="GGA_COMPAT"> T  </i>
  <i type="logical" name="LBERRY"> F  </i>
  <i type="int" name="ICORELEVEL">     0</i>
  <i type="logical" name="LDAU"> F  </i>
  <i type="int" name="I_CONSTRAINED_M">     0</i>
  <separator name="electronic exchange-correlation" >
   <i type="string" name="GGA">--</i>
   <i type="int" name="VOSKOWN">     0</i>
   <i type="logical" name="LHFCALC"> F  </i>
   <i type="string" name="PRECFOCK"></i>
   <i type="logical" name="LSYMGRAD"> F  </i>
   <i type="logical" name="LHFONE"> F  </i>
   <i type="logical" name="LRHFCALC"> F  </i>
   <i type="logical" name="LTHOMAS"> F  </i>
   <i type="logical" name="LMODELHF"> F  </i>
   <i type="logical" name="LFOCKACE"> F  </i>
   <i name="ENCUT4O">     -1.00000000</i>
   <i type="int" name="EXXOEP">     0</i>
   <i type="int" name="FOURORBIT">     0</i>
   <i name="AEXX">      0.00000000</i>
   <i name="HFALPHA">      0.00000000</i>
   <i name="MCALPHA">      0.00000000</i>
   <i name="ALDAX">      1.00000000</i>
   <i name="AGGAX">      1.00000000</i>
   <i name="ALDAC">      1.00000000</i>
   <i name="AGGAC">      1.00000000</i>
   <i type="int" name="NKREDX">     1</i>
   <i type="int" name="NKREDY">     1</i>
   <i type="int" name="NKREDZ">     1</i>
   <i type="logical" name="SHIFTRED"> F  </i>
   <i type="logical" name="ODDONLY"> F  </i>
   <i type="logical" name="EVENONLY"> F  </i>
   <i type="int" name="LMAXFOCK">     0</i>
   <i type="int" name="NMAXFOCKAE">     0</i>
   <i type="logical" name="LFOCKAEDFT"> F  </i>
   <i name="HFSCREEN">      0.00000000</i>
   <i name="HFSCREENC">      0.00000000</i>
   <i type="int" name="NBANDSGWLOW">     0</i>
  </separator>
  <separator name="vdW DFT" >
   <i type="logical" name="LUSE_VDW"> F  </i>
   <i name="Zab_VDW">     -0.84910000</i>
   <i name="PARAM1">      0.12340000</i>
   <i name="PARAM2">      1.00000000</i>
   <i name="PARAM3">      0.00000000</i>
  </separator>
  <separator name="model GW" >
   <i type="int" name="MODEL_GW">     0</i>
   <i name="MODEL_EPS0">     12.09885803</i>
   <i name="MODEL_ALPHA">      1.00000000</i>
  </separator>
  <separator name="linear response parameters" >
   <i type="logical" name="LEPSILON"> F  </i>
   <i type="logical" name="LRPA"> F  </i>
   <i type="logical" name="LNABLA"> F  </i>
   <i type="logical" name="LVEL"> F  </i>
   <i name="CSHIFT">      0.10000000</i>
   <i name="OMEGAMAX">     -1.00000000</i>
   <i name="DEG_THRESHOLD">      0.00200000</i>
   <i name="RTIME">     -0.10000000</i>
   <i name="WPLASMAI">      0.00000000</i>
   <v name="DFIELD">      0.00000000      0.00000000      0.00000000</v>
   <v name="WPLASMA">      0.00000000      0.00000000      0.00000000      0.00000000      0.00000000      0.00000000      0.00000000      0.00000000      0.00000000</v>
  </separator>
  <separator name="orbital magnetization" >
   <i type="logical" name="NUCIND"> F  </i>
   <v name="MAGPOS">      0.00000000      0.00000000      0.00000000</v>
   <i type="logical" name="LNICSALL"> T  </i>
   <i type="logical" name="ORBITALMAG"> F  </i>
   <i type="logical" name="LMAGBLOCH"> F  </i>
   <i type="logical" name="LCHIMAG"> F  </i>
   <i type="logical" name="LGAUGE"> T  </i>
   <i type="int" name="MAGATOM">     0</i>
   <v name="MAGDIPOL">      0.00000000      0.00000000      0.00000000</v>
   <v name="AVECCONST">      0.00000000      0.00000000      0.00000000</v>
  </separator>
  <separator name="response functions" >
   <i type="logical" name="LFINITE_TEMPERATURE"> F  </i>
   <i type="logical" name="LADDER"> F  </i>
   <i type="logical" name="LRPAFORCE"> F  </i>
   <i type="logical" name="LFXC"> F  </i>
   <i type="logical" name="LHARTREE"> T  </i>
   <i type="int" name="IBSE">     0</i>
   <v type="int" name="KPOINT">    -1     0     0     0</v>
   <i type="logical" name="LTCTC"> F  </i>
   <i type="logical" name="LTCTE"> F  </i>
   <i type="logical" name="LTETE"> F  </i>
   <i type="logical" name="LTRIPLET"> F  </i>
   <i type="logical" name="LFXCEPS"> F  </i>
   <i type="logical" name="LFXHEG"> F  </i>
   <i type="int" name="NATURALO">     2</i>
   <i type="logical" name="LHOLEGF"> F  </i>
   <i type="logical" name="L2ORDER"> F  </i>
   <i type="logical" name="LDMP1"> F  </i>
   <i type="logical" name="LMP2LT"> F  </i>
   <i type="logical" name="LSMP2LT"> F  </i>
   <i type="logical" name="LGWLF"> F  </i>
   <i name="ENCUTGW">     -2.00000000</i>
   <i name="ENCUTGWSOFT">     -2.00000000</i>
   <i name="ENCUTLF">     -1.00000000</i>
   <i type="logical" name="LESF_SPLINES"> F  </i>
   <i type="int" name="LMAXMP2">    -1</i>
   <i name="SCISSOR">      0.00000000</i>
   <i type="int" name="NOMEGA">     0</i>
   <i type="int" name="NOMEGAR">     0</i>
   <i type="int" name="NBANDSGW">    -1</i>
   <i type="int" name="NBANDSO">    -1</i>
   <i type="int" name="NBANDSV">    -1</i>
   <i type="int" name="NELMGW">     1</i>
   <i type="int" name="NELMHF">     1</i>
   <i type="int" name="DIM">     3</i>
   <i type="int" name="IESPILON">     4</i>
   <i type="int" name="ANTIRES">     0</i>
   <i name="OMEGAMAX">    -30.00000000</i>
   <i name="OMEGAMIN">    -30.00000000</i>
   <i name="OMEGATL">   -200.00000000</i>
   <i type="int" name="OMEGAGRID">     0</i>
   <i name="CSHIFT">     -0.10000000</i>
   <i type="logical" name="LSELFENERGY"> F  </i>
   <i type="logical" name="LSPECTRAL"> F  </i>
   <i type="logical" name="LSPECTRALGW"> F  </i>
   <i type="logical" name="LSINGLES"> F  </i>
   <i type="logical" name="LFERMIGW"> F  </i>
   <i type="logical" name="ODDONLYGW"> F  </i>
   <i type="logical" name="EVENONLYGW"> F  </i>
   <i type="int" name="NKREDLFX">     1</i>
   <i type="int" name="NKREDLFY">     1</i>
   <i type="int" name="NKREDLFZ">     1</i>
   <i type="int" name="MAXMEM">  2800</i>
   <i type="int" name="TELESCOPE">     0</i>
   <i type="int" name="NTAUPAR">    -1</i>
   <i type="int" name="NOMEGAPAR">    -1</i>
   <i name="DAMP_NEWTON">      0.80000001</i>
   <i name="LAMBDA">      1.00000000</i>
  </separator>
  <separator name="External order field" >
   <i name="OFIELD_KAPPA">      0.00000000</i>
   <v name="OFIELD_K">      0.00000000      0.00000000      0.00000000</v>
   <i name="OFIELD_Q6_NEAR">      0.00000000</i>
   <i name="OFIELD_Q6_FAR">      0.00000000</i>
   <i name="OFIELD_A">      0.00000000</i>
  </separator>
  <separator name="optional k-points parameters" >
   <i type="int" name="KPOINTS_OPT_MODE">     1</i>
   <i type="logical" name="LKPOINTS_OPT"> F  </i>
  </separator>
  <separator name="solvation model" >
   <i type="logical" name="LSOL"> F  </i>
  </separator>
 </parameters>
 <atominfo>
  <atoms>       2 </atoms>
  <types>       1 </types>
  <array name="atoms" >
   <dimension dim="1">ion</dimension>
   <field type="string">element</field>
   <field type="int">atomtype</field>
   <set>
    <rc><c>Si</c><c>   1</c></rc>
    <rc><c>Si</c><c>   1</c></rc>
   </set>
  </array>
  <array name="atomtypes" >
   <dimension dim="1">type</dimension>
   <field type="int">atomspertype</field>
   <field type="string">element</field>
   <field>mass</field>
   <field>valence</field>
   <field type="string">pseudopotential</field>
   <set>
    <rc><c>   2</c><c>Si</c><c>     28.08500000</c><c>      4.00000000</c><c>  PAW_PBE Si 05Jan2001                  </c></rc>
   </set>
  </array>
 </atominfo>
 <structure name="initialpos" >
  <crystal>
   <varray name="basis" >
    <v>      -2.72185119      -2.72185118       0.00000000 </v>
    <v>      -2.72185118       0.00000000      -2.72185118 </v>
    <v>      -0.00000000      -2.72185118      -2.72185118 </v>
   </varray>
   <i name="volume">     40.32952678 </i>
   <varray name="rec_basis" >
    <v>      -0.18369851      -0.18369851       0.18369851 </v>
    <v>      -0.18369851       0.18369851      -0.18369851 </v>
    <v>       0.18369851      -0.18369851      -0.18369851 </v>
   </varray>
  </crystal>
  <varray name="positions" >
   <v>       0.75000000       0.75000000       0.75000000 </v>
   <v>       0.00000000       0.00000000       0.00000000 </v>
  </varray>
 </structure>
 <calculation>
  <scstep>
   <time name="dav">    0.61    0.66</time>
   <time name="total">    0.81    0.88</time>
   <energy>
    <i name="alphaZ">      3.33880742 </i>
    <i name="ewald">   -227.98820656 </i>
    <i name="hartreedc">    -11.11484529 </i>
    <i name="XCdc">    -18.55186575 </i>
    <i name="pawpsdc">    176.18363791 </i>
    <i name="pawaedc">   -140.99252705 </i>
    <i name="eentropy">      0.00000000 </i>
    <i name="bandstr">      7.67156980 </i>
    <i name="atom">    206.13270273 </i>
    <i name="e_fr_energy">     -5.32072679 </i>
    <i name="e_wo_entrp">     -5.32072679 </i>
    <i name="e_0_energy">     -5.32072679 </i>
   </energy>
  </scstep>
  <scstep>
   <time name="dav">    0.97    0.99</time>
   <time name="total">    0.98    0.99</time>
   <energy>
    <i name="e_fr_energy">    -10.82067460 </i>
    <i name="e_wo_entrp">    -10.82067460 </i>
    <i name="e_0_energy">    -10.82067460 </i>
   </energy>
  </scstep>
  <scstep>
   <time name="dav">    0.50    0.50</time>
   <time name="total">    0.50    0.50</time>
   <energy>
    <i name="e_fr_energy">    -10.83011666 </i>
    <i name="e_wo_entrp">    -10.83011666 </i>
    <i name="e_0_energy">    -10.83011666 </i>
   </energy>
  </scstep>
  <scstep>
   <time name="dav">    1.47    1.49</time>
   <time name="total">    1.47    1.49</time>
   <energy>
    <i name="e_fr_energy">    -10.83012451 </i>
    <i name="e_wo_entrp">    -10.83012451 </i>
    <i name="e_0_energy">    -10.83012451 </i>
   </energy>
  </scstep>
  <scstep>
   <time name="dav">    0.49    0.49</time>
   <time name="total">    0.72    0.74</time>
   <energy>
    <i name="e_fr_energy">    -10.83012451 </i>
    <i name="e_wo_entrp">    -10.83012451 </i>
    <i name="e_0_energy">    -10.83012451 </i>
   </energy>
  </scstep>
  <scstep>
   <time name="diag">    0.10    0.78</time>
   <time name="diis">    0.10    0.10</time>
   <time name="orth">    0.01    0.01</time>
   <time name="total">    0.52    1.21</time>
   <energy>
    <i name="e_fr_energy">    -10.88194093 </i>
    <i name="e_wo_entrp">    -10.88194093 </i>
    <i name="e_0_energy">    -10.88194093 </i>
   </energy>
  </scstep>
  <scstep>
   <time name="diag">    0.09    0.09</time>
   <time name="diis">    0.10    0.10</time>
   <time name="orth">    0.01    0.01</time>
   <time name="total">    0.49    0.49</time>
   <energy>
    <i name="e_fr_energy">    -10.82049764 </i>
    <i name="e_wo_entrp">    -10.82049764 </i>
    <i name="e_0_energy">    -10.82049764 </i>
   </energy>
  </scstep>
  <scstep>
   <time name="diag">    0.09    0.09</time>
   <time name="diis">    0.10    0.10</time>
   <time name="orth">    0.01    0.01</time>
   <time name="total">    0.49    0.49</time>
   <energy>
    <i name="e_fr_energy">    -10.83766251 </i>
    <i name="e_wo_entrp">    -10.83766251 </i>
    <i name="e_0_energy">    -10.83766251 </i>
   </energy>
  </scstep>
  <scstep>
   <time name="diag">    0.09    0.09</time>
   <time name="diis">    0.09    0.09</time>
   <time name="orth">    0.01    0.01</time>
   <time name="total">    0.43    0.43</time>
   <energy>
    <i name="e_fr_energy">    -10.83875247 </i>
    <i name="e_wo_entrp">    -10.83875247 </i>
    <i name="e_0_energy">    -10.83875247 </i>
   </energy>
  </scstep>
  <scstep>
   <time name="diag">    0.09    0.09</time>
   <time name="diis">    0.09    0.09</time>
   <time name="orth">    0.01    0.01</time>
   <time name="total">    0.37    0.37</time>
   <energy>
    <i name="e_fr_energy">    -10.83911617 </i>
    <i name="e_wo_entrp">    -10.83911617 </i>
    <i name="e_0_energy">    -10.83911617 </i>
   </energy>
  </scstep>
  <scstep>
   <time name="diag">    0.09    0.09</time>
   <time name="diis">    0.09    0.09</time>
   <time name="orth">    0.01    0.01</time>
   <time name="total">    0.36    0.36</time>
   <energy>
    <i name="alphaZ">      3.33880742 </i>
    <i name="ewald">   -227.98820656 </i>
    <i name="hartreedc">    -15.02828285 </i>
    <i name="XCdc">    -17.99462447 </i>
    <i name="pawpsdc">    864.69173058 </i>
    <i name="pawaedc">   -829.72353561 </i>
    <i name="eentropy">      0.00000000 </i>
    <i name="bandstr">      5.73221235 </i>
    <i name="atom">    206.13270273 </i>
    <i name="e_fr_energy">    -10.83919640 </i>
    <i name="e_wo_entrp">    -10.83919640 </i>
    <i name="e_0_energy">    -10.83919640 </i>
   </energy>
  </scstep>
  <structure>
   <crystal>
    <varray name="basis" >
     <v>      -2.72185119      -2.72185118       0.00000000 </v>
     <v>      -2.72185118       0.00000000      -2.72185118 </v>
     <v>      -0.00000000      -2.72185118      -2.72185118 </v>
    </varray>
    <i name="volume">     40.32952678 </i>
    <varray name="rec_basis" >
     <v>      -0.18369851      -0.18369851       0.18369851 </v>
     <v>      -0.18369851       0.18369851      -0.18369851 </v>
     <v>       0.18369851      -0.18369851      -0.18369851 </v>
    </varray>
   </crystal>
   <varray name="positions" >
    <v>       0.75000000       0.75000000       0.75000000 </v>
    <v>       0.00000000       0.00000000       0.00000000 </v>
   </varray>
  </structure>
  <varray name="forces" >
   <v>       0.00000000       0.00000000       0.00000000 </v>
   <v>      -0.00000000      -0.00000000      -0.00000000 </v>
  </varray>
  <varray name="stress" >
   <v>      12.49748018       0.00000000       0.00000000 </v>
   <v>       0.00000000      12.49748018      -0.00000000 </v>
   <v>       0.00000000       0.00000000      12.49748018 </v>
  </varray>
  <energy>
   <i name="e_fr_energy">    -10.83919640 </i>
   <i name="e_wo_entrp">    -10.83919640 </i>
   <i name="e_0_energy">    -10.83919640 </i>
  </energy>
  <time name="totalsc">    8.36    9.18</time>
 </calculation>
 <calculation>
  <scstep>
   <time name="dav">    0.97    1.00</time>
   <time name="total">    1.14    1.17</time>
   <energy>
    <i name="alphaZ">      3.26394032 </i>
    <i name="ewald">   -226.27122541 </i>
    <i name="hartreedc">    -14.92074619 </i>
    <i name="XCdc">    -18.10492284 </i>
    <i name="pawpsdc">    861.21917199 </i>
    <i name="pawaedc">   -826.25092720 </i>
    <i name="eentropy">      0.00000000 </i>
    <i name="bandstr">      4.08865689 </i>
    <i name="atom">    206.13270273 </i>
    <i name="e_fr_energy">    -10.84334970 </i>
    <i name="e_wo_entrp">    -10.84334970 </i>
    <i name="e_0_energy">    -10.84334970 </i>
   </energy>
  </scstep>
  <scstep>
   <time name="diag">    0.09    0.09</time>
   <time name="diis">    0.09    0.09</time>
   <time name="orth">    0.01    0.01</time>
   <time name="total">    0.51    0.51</time>
   <energy>
    <i name="e_fr_energy">    -10.84144778 </i>
    <i name="e_wo_entrp">    -10.84144778 </i>
    <i name="e_0_energy">    -10.84144778 </i>
   </energy>
  </scstep>
  <scstep>
   <time name="diag">    0.09    0.09</time>
   <time name="diis">    0.09    0.09</time>
   <time name="orth">    0.01    0.01</time>
   <time name="total">    0.36    0.36</time>
   <energy>
    <i name="e_fr_energy">    -10.84046355 </i>
    <i name="e_wo_entrp">    -10.84046355 </i>
    <i name="e_0_energy">    -10.84046355 </i>
   </energy>
  </scstep>
  <scstep>
   <time name="diag">    0.09    0.09</time>
   <time name="diis">    0.09    0.09</time>
   <time name="orth">    0.01    0.01</time>
   <time name="total">    0.36    0.36</time>
   <energy>
    <i name="e_fr_energy">    -10.84046171 </i>
    <i name="e_wo_entrp">    -10.84046171 </i>
    <i name="e_0_energy">    -10.84046171 </i>
   </energy>
  </scstep>
  <scstep>
   <time name="diag">    0.09    0.09</time>
   <time name="diis">    0.08    0.08</time>
   <time name="orth">    0.01    0.01</time>
   <time name="total">    0.33    0.33</time>
   <energy>
    <i name="alphaZ">      3.26394032 </i>
    <i name="ewald">   -226.27122541 </i>
    <i name="hartreedc">    -15.30287292 </i>
    <i name="XCdc">    -18.09640676 </i>
    <i name="pawpsdc">    807.94458076 </i>
    <i name="pawaedc">   -772.95955746 </i>
    <i name="eentropy">      0.00000000 </i>
    <i name="bandstr">      4.44837837 </i>
    <i name="atom">    206.13270273 </i>
    <i name="e_fr_energy">    -10.84046035 </i>
    <i name="e_wo_entrp">    -10.84046035 </i>
    <i name="e_0_energy">    -10.84046035 </i>
   </energy>
  </scstep>
  <structure>
   <crystal>
    <varray name="basis" >
     <v>      -2.74250501      -2.74250501      -0.00000000 </v>
     <v>      -2.74250501      -0.00000000      -2.74250501 </v>
     <v>      -0.00000000      -2.74250501      -2.74250501 </v>
    </varray>
    <i name="volume">     41.25459105 </i>
    <varray name="rec_basis" >
     <v>      -0.18231507      -0.18231507       0.18231507 </v>
     <v>      -0.18231507       0.18231507      -0.18231507 </v>
     <v>       0.18231507      -0.18231507      -0.18231507 </v>
    </varray>
   </crystal>
   <varray name="positions" >
    <v>       0.75000000       0.75000000       0.75000000 </v>
    <v>       0.00000000       0.00000000       0.00000000 </v>
   </varray>
  </structure>
  <varray name="forces" >
   <v>       0.00000000      -0.00000000      -0.00000000 </v>
   <v>      -0.00000000       0.00000000       0.00000000 </v>
  </varray>
  <varray name="stress" >
   <v>      -7.54713737       0.00000000      -0.00000000 </v>
   <v>       0.00000000      -7.54713737      -0.00000000 </v>
   <v>       0.00000000      -0.00000000      -7.54713737 </v>
  </varray>
  <energy>
   <i name="e_fr_energy">    -10.84046035 </i>
   <i name="e_wo_entrp">    -10.84046035 </i>
   <i name="e_0_energy">    -10.84046035 </i>
  </energy>
  <time name="totalsc">    3.30    3.33</time>
 </calculation>
 <calculation>
  <scstep>
   <time name="dav">    0.84    0.84</time>
   <time name="total">    1.00    1.00</time>
   <energy>
    <i name="alphaZ">      3.29226195 </i>
    <i name="ewald">   -226.92380306 </i>
    <i name="hartreedc">    -15.34815000 </i>
    <i name="XCdc">    -18.05586336 </i>
    <i name="pawpsdc">    815.63481001 </i>
    <i name="pawaedc">   -780.64648835 </i>
    <i name="eentropy">      0.00000000 </i>
    <i name="bandstr">      5.07280809 </i>
    <i name="atom">    206.13270273 </i>
    <i name="e_fr_energy">    -10.84172199 </i>
    <i name="e_wo_entrp">    -10.84172199 </i>
    <i name="e_0_energy">    -10.84172199 </i>
   </energy>
  </scstep>
  <scstep>
   <time name="diag">    0.09    0.09</time>
   <time name="diis">    0.09    0.09</time>
   <time name="orth">    0.01    0.01</time>
   <time name="total">    0.44    0.44</time>
   <energy>
    <i name="e_fr_energy">    -10.84145113 </i>
    <i name="e_wo_entrp">    -10.84145113 </i>
    <i name="e_0_energy">    -10.84145113 </i>
   </energy>
  </scstep>
  <scstep>
   <time name="diag">    0.09    0.09</time>
   <time name="diis">    0.09    0.09</time>
   <time name="orth">    0.01    0.01</time>
   <time name="total">    0.36    0.36</time>
   <energy>
    <i name="e_fr_energy">    -10.84131699 </i>
    <i name="e_wo_entrp">    -10.84131699 </i>
    <i name="e_0_energy">    -10.84131699 </i>
   </energy>
  </scstep>
  <scstep>
   <time name="diag">    0.09    0.09</time>
   <time name="diis">    0.06    0.06</time>
   <time name="orth">    0.01    0.01</time>
   <time name="total">    0.33    0.33</time>
   <energy>
    <i name="e_fr_energy">    -10.84131749 </i>
    <i name="e_wo_entrp">    -10.84131749 </i>
    <i name="e_0_energy">    -10.84131749 </i>
   </energy>
  </scstep>
  <scstep>
   <time name="diag">    0.10    0.10</time>
   <time name="diis">    0.06    0.06</time>
   <time name="orth">    0.01    0.01</time>
   <time name="total">    0.31    0.51</time>
   <energy>
    <i name="alphaZ">      3.29226195 </i>
    <i name="ewald">   -226.92380306 </i>
    <i name="hartreedc">    -15.20475554 </i>
    <i name="XCdc">    -18.05877375 </i>
    <i name="pawpsdc">    832.12162408 </i>
    <i name="pawaedc">   -797.14007353 </i>
    <i name="eentropy">      0.00000000 </i>
    <i name="bandstr">      4.93949889 </i>
    <i name="atom">    206.13270273 </i>
    <i name="e_fr_energy">    -10.84131822 </i>
    <i name="e_wo_entrp">    -10.84131822 </i>
    <i name="e_0_energy">    -10.84131822 </i>
   </energy>
  </scstep>
  <structure>
   <crystal>
    <varray name="basis" >
     <v>      -2.73461824      -2.73461824      -0.00000000 </v>
     <v>      -2.73461824      -0.00000000      -2.73461824 </v>
     <v>      -0.00000000      -2.73461824      -2.73461824 </v>
    </varray>
    <i name="volume">     40.89969909 </i>
    <varray name="rec_basis" >
     <v>      -0.18284088      -0.18284088       0.18284088 </v>
     <v>      -0.18284088       0.18284088      -0.18284088 </v>
     <v>       0.18284088      -0.18284088      -0.18284088 </v>
    </varray>
   </crystal>
   <varray name="positions" >
    <v>       0.75000000       0.75000000       0.75000000 </v>
    <v>       0.00000000       0.00000000       0.00000000 </v>
   </varray>
  </structure>
  <varray name="forces" >
   <v>       0.00000000       0.00000000      -0.00000000 </v>
   <v>      -0.00000000      -0.00000000       0.00000000 </v>
  </varray>
  <varray name="stress" >
   <v>      -0.01486108       0.00000000      -0.00000000 </v>
   <v>       0.00000000      -0.01486108      -0.00000000 </v>
   <v>      -0.00000000      -0.00000000      -0.01486108 </v>
  </varray>
  <energy>
   <i name="e_fr_energy">    -10.84131822 </i>
   <i name="e_wo_entrp">    -10.84131822 </i>
   <i name="e_0_energy">    -10.84131822 </i>
  </energy>
  <time name="totalsc">    3.00    3.63</time>
  <eigenvalues>
   <array>
    <dimension dim="1">band</dimension>
    <dimension dim="2">kpoint</dimension>
    <dimension dim="3">spin</dimension>
    <field>eigene</field>
    <field>occ</field>
    <set>
     <set comment="spin 1">
      <set comment="kpoint 1">
       <r>   -6.1967    1.0000 </r>
       <r>    5.6171    1.0000 </r>
       <r>    5.6171    1.0000 </r>
       <r>    5.6171    1.0000 </r>
       <r>    8.1723    0.0000 </r>
       <r>    8.1723    0.0000 </r>
       <r>    8.1723    0.0000 </r>
       <r>    8.7482    0.0000 </r>
       <r>   13.3242    0.0000 </r>
       <r>   13.3242    0.0000 </r>
       <r>   13.4942    0.0000 </r>
       <r>   16.7965    0.0000 </r>
       <r>   16.7965    0.0000 </r>
       <r>   16.7965    0.0000 </r>
       <r>   20.8904    0.0000 </r>
       <r>   28.4681    0.0000 </r>
       <r>   28.4681    0.0000 </r>
       <r>   28.4681    0.0000 </r>
       <r>   29.5482    0.0000 </r>
       <r>   29.5482    0.0000 </r>
       <r>   30.9945    0.0000 </r>
       <r>   30.9945    0.0000 </r>
       <r>   30.9945    0.0000 </r>
       <r>   34.5231    0.0000 </r>
       <r>   34.5231    0.0000 </r>
       <r>   34.5231    0.0000 </r>
       <r>   40.1070    0.0000 </r>
       <r>   40.1070    0.0000 </r>
       <r>   40.1070    0.0000 </r>
       <r>   43.4133    0.0000 </r>
       <r>   43.8815    0.0000 </r>
       <r>   43.8815    0.0000 </r>
      </set>
      <set comment="kpoint 2">
       <r>   -5.9354    1.0000 </r>
       <r>    3.6969    1.0000 </r>
       <r>    5.2676    1.0000 </r>
       <r>    5.2676    1.0000 </r>
       <r>    7.9936    0.0000 </r>
       <r>    8.6835    0.0000 </r>
       <r>    8.6835    0.0000 </r>
       <r>   10.4649    0.0000 </r>
       <r>   12.7755    0.0000 </r>
       <r>   12.7755    0.0000 </r>
       <r>   14.4400    0.0000 </r>
       <r>   16.1838    0.0000 </r>
       <r>   18.2315    0.0000 </r>
       <r>   18.2315    0.0000 </r>
       <r>   22.4032    0.0000 </r>
       <r>   25.9882    0.0000 </r>
       <r>   25.9882    0.0000 </r>
       <r>   26.3948    0.0000 </r>
       <r>   29.2232    0.0000 </r>
       <r>   29.2232    0.0000 </r>
       <r>   31.5924    0.0000 </r>
       <r>   31.5924    0.0000 </r>
       <r>   32.6987    0.0000 </r>
       <r>   34.7598    0.0000 </r>
       <r>   37.1247    0.0000 </r>
       <r>   37.1247    0.0000 </r>
       <r>   37.2147    0.0000 </r>
       <r>   39.4412    0.0000 </r>
       <r>   39.4412    0.0000 </r>
       <r>   41.4905    0.0000 </r>
       <r>   41.4905    0.0000 </r>
       <r>   43.5348    0.0000 </r>
      </set>
      <set comment="kpoint 3">
       <r>   -5.1832    1.0000 </r>
       <r>    1.1146    1.0000 </r>
       <r>    4.7600    1.0000 </r>
       <r>    4.7600    1.0000 </r>
       <r>    7.4502    0.0000 </r>
       <r>    9.1404    0.0000 </r>
       <r>    9.1404    0.0000 </r>
       <r>   12.9273    0.0000 </r>
       <r>   13.0548    0.0000 </r>
       <r>   13.0548    0.0000 </r>
       <r>   14.4429    0.0000 </r>
       <r>   18.0786    0.0000 </r>
       <r>   20.4948    0.0000 </r>
       <r>   20.4948    0.0000 </r>
       <r>   22.7887    0.0000 </r>
       <r>   22.7887    0.0000 </r>
       <r>   22.8811    0.0000 </r>
       <r>   26.1628    0.0000 </r>
       <r>   29.4204    0.0000 </r>
       <r>   29.4204    0.0000 </r>
       <r>   31.9707    0.0000 </r>
       <r>   31.9707    0.0000 </r>
       <r>   32.1218    0.0000 </r>
       <r>   34.8850    0.0000 </r>
       <r>   35.4047    0.0000 </r>
       <r>   36.0529    0.0000 </r>
       <r>   36.0529    0.0000 </r>
       <r>   38.4234    0.0000 </r>
       <r>   38.4234    0.0000 </r>
       <r>   39.5160    0.0000 </r>
       <r>   39.5160    0.0000 </r>
       <r>   42.3917    0.0000 </r>
      </set>
      <set comment="kpoint 4">
       <r>   -4.1661    1.0000 </r>
       <r>   -0.8794    1.0000 </r>
       <r>    4.4748    1.0000 </r>
       <r>    4.4748    1.0000 </r>
       <r>    7.1244    0.0000 </r>
       <r>    9.0033    0.0000 </r>
       <r>    9.0033    0.0000 </r>
       <r>   13.3761    0.0000 </r>
       <r>   15.0382    0.0000 </r>
       <r>   15.0382    0.0000 </r>
       <r>   15.9998    0.0000 </r>
       <r>   18.0576    0.0000 </r>
       <r>   18.0576    0.0000 </r>
       <r>   19.0721    0.0000 </r>
       <r>   23.0006    0.0000 </r>
       <r>   25.3062    0.0000 </r>
       <r>   25.3062    0.0000 </r>
       <r>   27.3560    0.0000 </r>
       <r>   28.6166    0.0000 </r>
       <r>   28.6166    0.0000 </r>
       <r>   29.8735    0.0000 </r>
       <r>   31.9431    0.0000 </r>
       <r>   31.9431    0.0000 </r>
       <r>   32.8861    0.0000 </r>
       <r>   32.8861    0.0000 </r>
       <r>   34.5489    0.0000 </r>
       <r>   36.1304    0.0000 </r>
       <r>   37.6770    0.0000 </r>
       <r>   37.6770    0.0000 </r>
       <r>   38.3831    0.0000 </r>
       <r>   38.3831    0.0000 </r>
       <r>   39.2460    0.0000 </r>
      </set>
      <set comment="kpoint 5">
       <r>   -5.8469    1.0000 </r>
       <r>    3.9684    1.0000 </r>
       <r>    4.6673    1.0000 </r>
       <r>    4.6673    1.0000 </r>
       <r>    7.5036    0.0000 </r>
       <r>    9.5498    0.0000 </r>
       <r>    9.5498    0.0000 </r>
       <r>    9.9047    0.0000 </r>
       <r>   12.0281    0.0000 </r>
       <r>   13.7136    0.0000 </r>
       <r>   14.8513    0.0000 </r>
       <r>   17.4036    0.0000 </r>
       <r>   17.4036    0.0000 </r>
       <r>   17.9305    0.0000 </r>
       <r>   23.1603    0.0000 </r>
       <r>   25.5017    0.0000 </r>
       <r>   25.5017    0.0000 </r>
       <r>   26.7223    0.0000 </r>
       <r>   27.6582    0.0000 </r>
       <r>   28.9474    0.0000 </r>
       <r>   31.8597    0.0000 </r>
       <r>   32.2500    0.0000 </r>
       <r>   32.2500    0.0000 </r>
       <r>   36.9751    0.0000 </r>
       <r>   36.9751    0.0000 </r>
       <r>   37.4738    0.0000 </r>
       <r>   37.9142    0.0000 </r>
       <r>   37.9142    0.0000 </r>
       <r>   38.0407    0.0000 </r>
       <r>   39.9300    0.0000 </r>
       <r>   41.8763    0.0000 </r>
       <r>   43.1470    0.0000 </r>
      </set>
      <set comment="kpoint 6">
       <r>   -5.2510    1.0000 </r>
       <r>    1.8842    1.0000 </r>
       <r>    4.0853    1.0000 </r>
       <r>    4.1341    1.0000 </r>
       <r>    7.6916    0.0000 </r>
       <r>    9.4422    0.0000 </r>
       <r>   10.1776    0.0000 </r>
       <r>   10.3279    0.0000 </r>
       <r>   13.6264    0.0000 </r>
       <r>   14.0894    0.0000 </r>
       <r>   15.7568    0.0000 </r>
       <r>   17.6014    0.0000 </r>
       <r>   19.0352    0.0000 </r>
       <r>   20.4496    0.0000 </r>
       <r>   22.1963    0.0000 </r>
       <r>   22.8179    0.0000 </r>
       <r>   25.1613    0.0000 </r>
       <r>   26.5281    0.0000 </r>
       <r>   26.8685    0.0000 </r>
       <r>   28.4132    0.0000 </r>
       <r>   31.4182    0.0000 </r>
       <r>   32.6312    0.0000 </r>
       <r>   32.8844    0.0000 </r>
       <r>   35.0750    0.0000 </r>
       <r>   35.9820    0.0000 </r>
       <r>   36.3014    0.0000 </r>
       <r>   37.4760    0.0000 </r>
       <r>   37.8173    0.0000 </r>
       <r>   38.6009    0.0000 </r>
       <r>   39.3504    0.0000 </r>
       <r>   40.8648    0.0000 </r>
       <r>   41.2536    0.0000 </r>
      </set>
      <set comment="kpoint 7">
       <r>   -4.2626    1.0000 </r>
       <r>   -0.2599    1.0000 </r>
       <r>    3.4066    1.0000 </r>
       <r>    3.9467    1.0000 </r>
       <r>    7.7482    0.0000 </r>
       <r>    9.3934    0.0000 </r>
       <r>   10.1294    0.0000 </r>
       <r>   11.3625    0.0000 </r>
       <r>   15.0299    0.0000 </r>
       <r>   15.7891    0.0000 </r>
       <r>   16.3813    0.0000 </r>
       <r>   17.7433    0.0000 </r>
       <r>   18.4975    0.0000 </r>
       <r>   21.1588    0.0000 </r>
       <r>   22.9368    0.0000 </r>
       <r>   23.0644    0.0000 </r>
       <r>   24.7396    0.0000 </r>
       <r>   26.9041    0.0000 </r>
       <r>   27.6137    0.0000 </r>
       <r>   29.0156    0.0000 </r>
       <r>   29.7791    0.0000 </r>
       <r>   30.2550    0.0000 </r>
       <r>   32.7143    0.0000 </r>
       <r>   33.5675    0.0000 </r>
       <r>   34.2008    0.0000 </r>
       <r>   34.9926    0.0000 </r>
       <r>   35.7233    0.0000 </r>
       <r>   36.4237    0.0000 </r>
       <r>   38.0725    0.0000 </r>
       <r>   38.5952    0.0000 </r>
       <r>   39.7118    0.0000 </r>
       <r>   40.6882    0.0000 </r>
      </set>
      <set comment="kpoint 8">
       <r>   -3.7186    1.0000 </r>
       <r>   -1.1044    1.0000 </r>
       <r>    3.0012    1.0000 </r>
       <r>    4.1393    1.0000 </r>
       <r>    7.8348    0.0000 </r>
       <r>    9.3175    0.0000 </r>
       <r>    9.7435    0.0000 </r>
       <r>   13.7107    0.0000 </r>
       <r>   14.2357    0.0000 </r>
       <r>   14.6088    0.0000 </r>
       <r>   16.4990    0.0000 </r>
       <r>   18.6489    0.0000 </r>
       <r>   19.1590    0.0000 </r>
       <r>   19.6380    0.0000 </r>
       <r>   23.5838    0.0000 </r>
       <r>   25.3827    0.0000 </r>
       <r>   25.9668    0.0000 </r>
       <r>   26.1101    0.0000 </r>
       <r>   27.2118    0.0000 </r>
       <r>   27.3298    0.0000 </r>
       <r>   30.2440    0.0000 </r>
       <r>   31.1115    0.0000 </r>
       <r>   31.7853    0.0000 </r>
       <r>   32.7545    0.0000 </r>
       <r>   32.9786    0.0000 </r>
       <r>   34.2343    0.0000 </r>
       <r>   35.0951    0.0000 </r>
       <r>   35.9666    0.0000 </r>
       <r>   38.0838    0.0000 </r>
       <r>   38.8310    0.0000 </r>
       <r>   39.0953    0.0000 </r>
       <r>   40.3198    0.0000 </r>
      </set>
      <set comment="kpoint 9">
       <r>   -4.6233    1.0000 </r>
       <r>    0.4070    1.0000 </r>
       <r>    3.0105    1.0000 </r>
       <r>    4.6428    1.0000 </r>
       <r>    8.2174    0.0000 </r>
       <r>    9.5004    0.0000 </r>
       <r>    9.5241    0.0000 </r>
       <r>   12.1846    0.0000 </r>
       <r>   12.3598    0.0000 </r>
       <r>   15.3851    0.0000 </r>
       <r>   16.6549    0.0000 </r>
       <r>   17.7225    0.0000 </r>
       <r>   19.6233    0.0000 </r>
       <r>   21.4092    0.0000 </r>
       <r>   21.6752    0.0000 </r>
       <r>   22.9585    0.0000 </r>
       <r>   24.6725    0.0000 </r>
       <r>   27.2013    0.0000 </r>
       <r>   27.6554    0.0000 </r>
       <r>   28.6881    0.0000 </r>
       <r>   30.1274    0.0000 </r>
       <r>   31.3020    0.0000 </r>
       <r>   32.6157    0.0000 </r>
       <r>   33.8805    0.0000 </r>
       <r>   34.3462    0.0000 </r>
       <r>   35.4051    0.0000 </r>
       <r>   35.6665    0.0000 </r>
       <r>   37.3853    0.0000 </r>
       <r>   38.8812    0.0000 </r>
       <r>   39.2843    0.0000 </r>
       <r>   39.3553    0.0000 </r>
       <r>   41.8115    0.0000 </r>
      </set>
      <set comment="kpoint 10">
       <r>   -5.5070    1.0000 </r>
       <r>    2.4939    1.0000 </r>
       <r>    3.6959    1.0000 </r>
       <r>    5.2244    1.0000 </r>
       <r>    8.6062    0.0000 </r>
       <r>    8.8931    0.0000 </r>
       <r>    9.1407    0.0000 </r>
       <r>   11.1558    0.0000 </r>
       <r>   11.8382    0.0000 </r>
       <r>   14.0485    0.0000 </r>
       <r>   15.6122    0.0000 </r>
       <r>   16.8398    0.0000 </r>
       <r>   18.2825    0.0000 </r>
       <r>   20.6375    0.0000 </r>
       <r>   22.1997    0.0000 </r>
       <r>   23.9832    0.0000 </r>
       <r>   26.2331    0.0000 </r>
       <r>   26.2358    0.0000 </r>
       <r>   26.6317    0.0000 </r>
       <r>   28.1768    0.0000 </r>
       <r>   31.8442    0.0000 </r>
       <r>   32.0631    0.0000 </r>
       <r>   34.4725    0.0000 </r>
       <r>   34.8663    0.0000 </r>
       <r>   36.0487    0.0000 </r>
       <r>   36.7636    0.0000 </r>
       <r>   37.8969    0.0000 </r>
       <r>   38.4215    0.0000 </r>
       <r>   39.2741    0.0000 </r>
       <r>   39.5086    0.0000 </r>
       <r>   40.5517    0.0000 </r>
       <r>   40.8148    0.0000 </r>
      </set>
      <set comment="kpoint 11">
       <r>   -4.8145    1.0000 </r>
       <r>    1.4654    1.0000 </r>
       <r>    3.5233    1.0000 </r>
       <r>    3.5233    1.0000 </r>
       <r>    6.5730    0.0000 </r>
       <r>    8.2440    0.0000 </r>
       <r>   11.9319    0.0000 </r>
       <r>   11.9319    0.0000 </r>
       <r>   14.2209    0.0000 </r>
       <r>   14.8791    0.0000 </r>
       <r>   17.6506    0.0000 </r>
       <r>   18.8883    0.0000 </r>
       <r>   18.8883    0.0000 </r>
       <r>   19.7899    0.0000 </r>
       <r>   22.1762    0.0000 </r>
       <r>   22.1762    0.0000 </r>
       <r>   22.8503    0.0000 </r>
       <r>   25.0748    0.0000 </r>
       <r>   27.2812    0.0000 </r>
       <r>   31.0677    0.0000 </r>
       <r>   31.0850    0.0000 </r>
       <r>   32.1267    0.0000 </r>
       <r>   32.1267    0.0000 </r>
       <r>   34.0460    0.0000 </r>
       <r>   34.1846    0.0000 </r>
       <r>   34.1846    0.0000 </r>
       <r>   34.2154    0.0000 </r>
       <r>   40.2316    0.0000 </r>
       <r>   40.3508    0.0000 </r>
       <r>   41.4635    0.0000 </r>
       <r>   41.4635    0.0000 </r>
       <r>   41.9970    0.0000 </r>
      </set>
      <set comment="kpoint 12">
       <r>   -3.9287    1.0000 </r>
       <r>   -0.0124    1.0000 </r>
       <r>    2.5656    1.0000 </r>
       <r>    3.2673    1.0000 </r>
       <r>    6.8561    0.0000 </r>
       <r>    8.3257    0.0000 </r>
       <r>   12.1398    0.0000 </r>
       <r>   12.3331    0.0000 </r>
       <r>   16.4337    0.0000 </r>
       <r>   16.6823    0.0000 </r>
       <r>   17.1443    0.0000 </r>
       <r>   17.7234    0.0000 </r>
       <r>   19.6299    0.0000 </r>
       <r>   20.5173    0.0000 </r>
       <r>   21.7721    0.0000 </r>
       <r>   23.3356    0.0000 </r>
       <r>   23.4206    0.0000 </r>
       <r>   24.9212    0.0000 </r>
       <r>   27.3053    0.0000 </r>
       <r>   28.0289    0.0000 </r>
       <r>   30.3595    0.0000 </r>
       <r>   30.3910    0.0000 </r>
       <r>   31.0990    0.0000 </r>
       <r>   32.8401    0.0000 </r>
       <r>   33.4931    0.0000 </r>
       <r>   34.2701    0.0000 </r>
       <r>   36.2516    0.0000 </r>
       <r>   37.9147    0.0000 </r>
       <r>   38.0665    0.0000 </r>
       <r>   40.1380    0.0000 </r>
       <r>   41.3110    0.0000 </r>
       <r>   42.1033    0.0000 </r>
      </set>
      <set comment="kpoint 13">
       <r>   -3.0329    1.0000 </r>
       <r>   -1.1647    1.0000 </r>
       <r>    1.6316    1.0000 </r>
       <r>    3.4323    1.0000 </r>
       <r>    7.0932    0.0000 </r>
       <r>   10.5382    0.0000 </r>
       <r>   11.8455    0.0000 </r>
       <r>   11.8736    0.0000 </r>
       <r>   14.5509    0.0000 </r>
       <r>   14.6202    0.0000 </r>
       <r>   18.9033    0.0000 </r>
       <r>   19.2452    0.0000 </r>
       <r>   19.6702    0.0000 </r>
       <r>   22.8351    0.0000 </r>
       <r>   22.9962    0.0000 </r>
       <r>   23.3582    0.0000 </r>
       <r>   23.6517    0.0000 </r>
       <r>   25.3893    0.0000 </r>
       <r>   25.8849    0.0000 </r>
       <r>   27.9187    0.0000 </r>
       <r>   29.3492    0.0000 </r>
       <r>   29.6773    0.0000 </r>
       <r>   29.8798    0.0000 </r>
       <r>   33.3104    0.0000 </r>
       <r>   33.5752    0.0000 </r>
       <r>   34.0732    0.0000 </r>
       <r>   34.5719    0.0000 </r>
       <r>   36.0757    0.0000 </r>
       <r>   38.1622    0.0000 </r>
       <r>   39.5261    0.0000 </r>
       <r>   40.6230    0.0000 </r>
       <r>   40.7728    0.0000 </r>
      </set>
      <set comment="kpoint 14">
       <r>   -3.6691    1.0000 </r>
       <r>   -0.4280    1.0000 </r>
       <r>    1.5610    1.0000 </r>
       <r>    3.9706    1.0000 </r>
       <r>    7.6835    0.0000 </r>
       <r>   11.0230    0.0000 </r>
       <r>   11.3604    0.0000 </r>
       <r>   12.1221    0.0000 </r>
       <r>   12.4951    0.0000 </r>
       <r>   13.6728    0.0000 </r>
       <r>   18.8362    0.0000 </r>
       <r>   19.4511    0.0000 </r>
       <r>   20.2865    0.0000 </r>
       <r>   22.0107    0.0000 </r>
       <r>   22.2065    0.0000 </r>
       <r>   23.2316    0.0000 </r>
       <r>   23.4160    0.0000 </r>
       <r>   25.8892    0.0000 </r>
       <r>   28.0737    0.0000 </r>
       <r>   28.5960    0.0000 </r>
       <r>   29.4384    0.0000 </r>
       <r>   30.7467    0.0000 </r>
       <r>   30.9631    0.0000 </r>
       <r>   32.1277    0.0000 </r>
       <r>   33.3182    0.0000 </r>
       <r>   34.1705    0.0000 </r>
       <r>   34.5235    0.0000 </r>
       <r>   35.0418    0.0000 </r>
       <r>   39.5414    0.0000 </r>
       <r>   40.0367    0.0000 </r>
       <r>   40.9135    0.0000 </r>
       <r>   42.2237    0.0000 </r>
      </set>
      <set comment="kpoint 15">
       <r>   -3.1573    1.0000 </r>
       <r>   -0.9960    1.0000 </r>
       <r>    2.9021    1.0000 </r>
       <r>    2.9021    1.0000 </r>
       <r>    6.2281    0.0000 </r>
       <r>    6.7450    0.0000 </r>
       <r>   14.5438    0.0000 </r>
       <r>   14.5438    0.0000 </r>
       <r>   16.8106    0.0000 </r>
       <r>   17.1662    0.0000 </r>
       <r>   17.5511    0.0000 </r>
       <r>   17.5511    0.0000 </r>
       <r>   19.1860    0.0000 </r>
       <r>   19.4856    0.0000 </r>
       <r>   22.6650    0.0000 </r>
       <r>   23.4263    0.0000 </r>
       <r>   23.4263    0.0000 </r>
       <r>   24.3940    0.0000 </r>
       <r>   27.3174    0.0000 </r>
       <r>   27.6529    0.0000 </r>
       <r>   27.6529    0.0000 </r>
       <r>   28.7227    0.0000 </r>
       <r>   29.9197    0.0000 </r>
       <r>   31.7472    0.0000 </r>
       <r>   34.5384    0.0000 </r>
       <r>   34.5384    0.0000 </r>
       <r>   36.6250    0.0000 </r>
       <r>   39.7166    0.0000 </r>
       <r>   39.7166    0.0000 </r>
       <r>   40.5985    0.0000 </r>
       <r>   40.9056    0.0000 </r>
       <r>   41.2299    0.0000 </r>
      </set>
      <set comment="kpoint 16">
       <r>   -2.2274    1.0000 </r>
       <r>   -1.9383    1.0000 </r>
       <r>    2.0326    1.0000 </r>
       <r>    2.9623    1.0000 </r>
       <r>    6.5285    0.0000 </r>
       <r>    7.7652    0.0000 </r>
       <r>   14.3235    0.0000 </r>
       <r>   14.7319    0.0000 </r>
       <r>   14.9738    0.0000 </r>
       <r>   15.2937    0.0000 </r>
       <r>   19.2025    0.0000 </r>
       <r>   19.2478    0.0000 </r>
       <r>   19.3976    0.0000 </r>
       <r>   20.2414    0.0000 </r>
       <r>   22.5756    0.0000 </r>
       <r>   23.0052    0.0000 </r>
       <r>   25.1601    0.0000 </r>
       <r>   25.7905    0.0000 </r>
       <r>   26.0311    0.0000 </r>
       <r>   26.8534    0.0000 </r>
       <r>   27.2820    0.0000 </r>
       <r>   28.3712    0.0000 </r>
       <r>   29.2787    0.0000 </r>
       <r>   30.4526    0.0000 </r>
       <r>   34.6894    0.0000 </r>
       <r>   36.3425    0.0000 </r>
       <r>   36.4388    0.0000 </r>
       <r>   37.5904    0.0000 </r>
       <r>   39.6145    0.0000 </r>
       <r>   39.8159    0.0000 </r>
       <r>   40.6001    0.0000 </r>
       <r>   41.2695    0.0000 </r>
      </set>
      <set comment="kpoint 17">
       <r>   -4.5122    1.0000 </r>
       <r>    0.7474    1.0000 </r>
       <r>    2.5695    1.0000 </r>
       <r>    3.8657    1.0000 </r>
       <r>    8.1945    0.0000 </r>
       <r>    9.4300    0.0000 </r>
       <r>    9.7235    0.0000 </r>
       <r>   11.6921    0.0000 </r>
       <r>   13.7883    0.0000 </r>
       <r>   16.4726    0.0000 </r>
       <r>   16.8598    0.0000 </r>
       <r>   18.0740    0.0000 </r>
       <r>   19.2374    0.0000 </r>
       <r>   20.9698    0.0000 </r>
       <r>   21.1199    0.0000 </r>
       <r>   23.9777    0.0000 </r>
       <r>   24.0610    0.0000 </r>
       <r>   26.1048    0.0000 </r>
       <r>   26.7204    0.0000 </r>
       <r>   29.9574    0.0000 </r>
       <r>   30.0320    0.0000 </r>
       <r>   30.1556    0.0000 </r>
       <r>   31.7893    0.0000 </r>
       <r>   33.9148    0.0000 </r>
       <r>   34.0721    0.0000 </r>
       <r>   36.3746    0.0000 </r>
       <r>   36.9479    0.0000 </r>
       <r>   37.0551    0.0000 </r>
       <r>   38.2140    0.0000 </r>
       <r>   38.5442    0.0000 </r>
       <r>   40.3421    0.0000 </r>
       <r>   41.2332    0.0000 </r>
      </set>
      <set comment="kpoint 18">
       <r>   -3.4924    1.0000 </r>
       <r>   -0.7539    1.0000 </r>
       <r>    2.0019    1.0000 </r>
       <r>    3.3426    1.0000 </r>
       <r>    8.6759    0.0000 </r>
       <r>    9.0800    0.0000 </r>
       <r>   11.0403    0.0000 </r>
       <r>   12.1434    0.0000 </r>
       <r>   13.8649    0.0000 </r>
       <r>   15.5042    0.0000 </r>
       <r>   17.7119    0.0000 </r>
       <r>   18.8982    0.0000 </r>
       <r>   20.0310    0.0000 </r>
       <r>   21.4832    0.0000 </r>
       <r>   22.8968    0.0000 </r>
       <r>   23.6782    0.0000 </r>
       <r>   24.5013    0.0000 </r>
       <r>   25.9601    0.0000 </r>
       <r>   26.6990    0.0000 </r>
       <r>   27.9142    0.0000 </r>
       <r>   29.0152    0.0000 </r>
       <r>   29.8438    0.0000 </r>
       <r>   31.6151    0.0000 </r>
       <r>   32.8865    0.0000 </r>
       <r>   33.5144    0.0000 </r>
       <r>   34.1284    0.0000 </r>
       <r>   35.7889    0.0000 </r>
       <r>   36.6557    0.0000 </r>
       <r>   37.0938    0.0000 </r>
       <r>   38.1901    0.0000 </r>
       <r>   39.3529    0.0000 </r>
       <r>   41.1337    0.0000 </r>
      </set>
      <set comment="kpoint 19">
       <r>   -2.9583    1.0000 </r>
       <r>   -1.0829    1.0000 </r>
       <r>    2.0968    1.0000 </r>
       <r>    2.5016    1.0000 </r>
       <r>    7.8344    0.0000 </r>
       <r>    8.2048    0.0000 </r>
       <r>   11.7023    0.0000 </r>
       <r>   14.1726    0.0000 </r>
       <r>   14.6735    0.0000 </r>
       <r>   16.5432    0.0000 </r>
       <r>   17.9398    0.0000 </r>
       <r>   19.5057    0.0000 </r>
       <r>   20.0180    0.0000 </r>
       <r>   20.9645    0.0000 </r>
       <r>   22.2417    0.0000 </r>
       <r>   22.9607    0.0000 </r>
       <r>   24.7702    0.0000 </r>
       <r>   26.0929    0.0000 </r>
       <r>   26.3536    0.0000 </r>
       <r>   26.5265    0.0000 </r>
       <r>   28.2409    0.0000 </r>
       <r>   28.7498    0.0000 </r>
       <r>   30.1901    0.0000 </r>
       <r>   31.5894    0.0000 </r>
       <r>   34.6043    0.0000 </r>
       <r>   35.5188    0.0000 </r>
       <r>   36.5569    0.0000 </r>
       <r>   37.1524    0.0000 </r>
       <r>   37.2544    0.0000 </r>
       <r>   38.0632    0.0000 </r>
       <r>   39.6592    0.0000 </r>
       <r>   42.7829    0.0000 </r>
      </set>
      <set comment="kpoint 20">
       <r>   -2.5333    1.0000 </r>
       <r>   -1.4716    1.0000 </r>
       <r>    1.4745    1.0000 </r>
       <r>    2.5909    1.0000 </r>
       <r>    8.3556    0.0000 </r>
       <r>   10.4460    0.0000 </r>
       <r>   11.1907    0.0000 </r>
       <r>   11.3478    0.0000 </r>
       <r>   14.5851    0.0000 </r>
       <r>   15.7485    0.0000 </r>
       <r>   18.6507    0.0000 </r>
       <r>   19.9320    0.0000 </r>
       <r>   20.7809    0.0000 </r>
       <r>   21.8979    0.0000 </r>
       <r>   23.0239    0.0000 </r>
       <r>   23.8437    0.0000 </r>
       <r>   24.1774    0.0000 </r>
       <r>   24.4908    0.0000 </r>
       <r>   25.8425    0.0000 </r>
       <r>   26.8773    0.0000 </r>
       <r>   28.0837    0.0000 </r>
       <r>   29.8610    0.0000 </r>
       <r>   31.7790    0.0000 </r>
       <r>   32.0766    0.0000 </r>
       <r>   32.4746    0.0000 </r>
       <r>   33.8208    0.0000 </r>
       <r>   36.1214    0.0000 </r>
       <r>   36.1873    0.0000 </r>
       <r>   37.1655    0.0000 </r>
       <r>   37.3858    0.0000 </r>
       <r>   40.6659    0.0000 </r>
       <r>   42.4418    0.0000 </r>
      </set>
     </set>
     <set comment="spin 2">
      <set comment="kpoint 1">
       <r>   -6.1966    1.0000 </r>
       <r>    5.6171    1.0000 </r>
       <r>    5.6171    1.0000 </r>
       <r>    5.6171    1.0000 </r>
       <r>    8.1723    0.0000 </r>
       <r>    8.1723    0.0000 </r>
       <r>    8.1723    0.0000 </r>
       <r>    8.7483    0.0000 </r>
       <r>   13.3243    0.0000 </r>
       <r>   13.3243    0.0000 </r>
       <r>   13.4942    0.0000 </r>
       <r>   16.7965    0.0000 </r>
       <r>   16.7965    0.0000 </r>
       <r>   16.7965    0.0000 </r>
       <r>   20.8905    0.0000 </r>
       <r>   28.4681    0.0000 </r>
       <r>   28.4681    0.0000 </r>
       <r>   28.4681    0.0000 </r>
       <r>   29.5483    0.0000 </r>
       <r>   29.5483    0.0000 </r>
       <r>   30.9945    0.0000 </r>
       <r>   30.9945    0.0000 </r>
       <r>   30.9945    0.0000 </r>
       <r>   34.5232    0.0000 </r>
       <r>   34.5232    0.0000 </r>
       <r>   34.5232    0.0000 </r>
       <r>   40.1070    0.0000 </r>
       <r>   40.1070    0.0000 </r>
       <r>   40.1070    0.0000 </r>
       <r>   43.4135    0.0000 </r>
       <r>   43.8814    0.0000 </r>
       <r>   43.8814    0.0000 </r>
      </set>
      <set comment="kpoint 2">
       <r>   -5.9353    1.0000 </r>
       <r>    3.6970    1.0000 </r>
       <r>    5.2676    1.0000 </r>
       <r>    5.2676    1.0000 </r>
       <r>    7.9937    0.0000 </r>
       <r>    8.6836    0.0000 </r>
       <r>    8.6836    0.0000 </r>
       <r>   10.4650    0.0000 </r>
       <r>   12.7755    0.0000 </r>
       <r>   12.7755    0.0000 </r>
       <r>   14.4400    0.0000 </r>
       <r>   16.1838    0.0000 </r>
       <r>   18.2315    0.0000 </r>
       <r>   18.2315    0.0000 </r>
       <r>   22.4032    0.0000 </r>
       <r>   25.9883    0.0000 </r>
       <r>   25.9883    0.0000 </r>
       <r>   26.3948    0.0000 </r>
       <r>   29.2232    0.0000 </r>
       <r>   29.2232    0.0000 </r>
       <r>   31.5925    0.0000 </r>
       <r>   31.5925    0.0000 </r>
       <r>   32.6988    0.0000 </r>
       <r>   34.7599    0.0000 </r>
       <r>   37.1247    0.0000 </r>
       <r>   37.1247    0.0000 </r>
       <r>   37.2147    0.0000 </r>
       <r>   39.4413    0.0000 </r>
       <r>   39.4413    0.0000 </r>
       <r>   41.4905    0.0000 </r>
       <r>   41.4905    0.0000 </r>
       <r>   43.5347    0.0000 </r>
      </set>
      <set comment="kpoint 3">
       <r>   -5.1831    1.0000 </r>
       <r>    1.1147    1.0000 </r>
       <r>    4.7600    1.0000 </r>
       <r>    4.7600    1.0000 </r>
       <r>    7.4503    0.0000 </r>
       <r>    9.1404    0.0000 </r>
       <r>    9.1404    0.0000 </r>
       <r>   12.9274    0.0000 </r>
       <r>   13.0549    0.0000 </r>
       <r>   13.0549    0.0000 </r>
       <r>   14.4429    0.0000 </r>
       <r>   18.0787    0.0000 </r>
       <r>   20.4949    0.0000 </r>
       <r>   20.4949    0.0000 </r>
       <r>   22.7887    0.0000 </r>
       <r>   22.7887    0.0000 </r>
       <r>   22.8812    0.0000 </r>
       <r>   26.1628    0.0000 </r>
       <r>   29.4204    0.0000 </r>
       <r>   29.4204    0.0000 </r>
       <r>   31.9708    0.0000 </r>
       <r>   31.9708    0.0000 </r>
       <r>   32.1218    0.0000 </r>
       <r>   34.8850    0.0000 </r>
       <r>   35.4048    0.0000 </r>
       <r>   36.0529    0.0000 </r>
       <r>   36.0529    0.0000 </r>
       <r>   38.4234    0.0000 </r>
       <r>   38.4234    0.0000 </r>
       <r>   39.5161    0.0000 </r>
       <r>   39.5161    0.0000 </r>
       <r>   42.3916    0.0000 </r>
      </set>
      <set comment="kpoint 4">
       <r>   -4.1660    1.0000 </r>
       <r>   -0.8793    1.0000 </r>
       <r>    4.4748    1.0000 </r>
       <r>    4.4748    1.0000 </r>
       <r>    7.1245    0.0000 </r>
       <r>    9.0033    0.0000 </r>
       <r>    9.0033    0.0000 </r>
       <r>   13.3761    0.0000 </r>
       <r>   15.0382    0.0000 </r>
       <r>   15.0382    0.0000 </r>
       <r>   15.9998    0.0000 </r>
       <r>   18.0577    0.0000 </r>
       <r>   18.0577    0.0000 </r>
       <r>   19.0722    0.0000 </r>
       <r>   23.0006    0.0000 </r>
       <r>   25.3063    0.0000 </r>
       <r>   25.3063    0.0000 </r>
       <r>   27.3560    0.0000 </r>
       <r>   28.6166    0.0000 </r>
       <r>   28.6166    0.0000 </r>
       <r>   29.8735    0.0000 </r>
       <r>   31.9431    0.0000 </r>
       <r>   31.9431    0.0000 </r>
       <r>   32.8861    0.0000 </r>
       <r>   32.8861    0.0000 </r>
       <r>   34.5489    0.0000 </r>
       <r>   36.1304    0.0000 </r>
       <r>   37.6770    0.0000 </r>
       <r>   37.6770    0.0000 </r>
       <r>   38.3831    0.0000 </r>
       <r>   38.3831    0.0000 </r>
       <r>   39.2460    0.0000 </r>
      </set>
      <set comment="kpoint 5">
       <r>   -5.8469    1.0000 </r>
       <r>    3.9685    1.0000 </r>
       <r>    4.6674    1.0000 </r>
       <r>    4.6674    1.0000 </r>
       <r>    7.5036    0.0000 </r>
       <r>    9.5498    0.0000 </r>
       <r>    9.5498    0.0000 </r>
       <r>    9.9048    0.0000 </r>
       <r>   12.0281    0.0000 </r>
       <r>   13.7137    0.0000 </r>
       <r>   14.8513    0.0000 </r>
       <r>   17.4036    0.0000 </r>
       <r>   17.4036    0.0000 </r>
       <r>   17.9305    0.0000 </r>
       <r>   23.1603    0.0000 </r>
       <r>   25.5017    0.0000 </r>
       <r>   25.5017    0.0000 </r>
       <r>   26.7224    0.0000 </r>
       <r>   27.6583    0.0000 </r>
       <r>   28.9474    0.0000 </r>
       <r>   31.8597    0.0000 </r>
       <r>   32.2501    0.0000 </r>
       <r>   32.2501    0.0000 </r>
       <r>   36.9752    0.0000 </r>
       <r>   36.9752    0.0000 </r>
       <r>   37.4738    0.0000 </r>
       <r>   37.9143    0.0000 </r>
       <r>   37.9143    0.0000 </r>
       <r>   38.0407    0.0000 </r>
       <r>   39.9300    0.0000 </r>
       <r>   41.8764    0.0000 </r>
       <r>   43.1469    0.0000 </r>
      </set>
      <set comment="kpoint 6">
       <r>   -5.2509    1.0000 </r>
       <r>    1.8842    1.0000 </r>
       <r>    4.0854    1.0000 </r>
       <r>    4.1341    1.0000 </r>
       <r>    7.6917    0.0000 </r>
       <r>    9.4422    0.0000 </r>
       <r>   10.1776    0.0000 </r>
       <r>   10.3280    0.0000 </r>
       <r>   13.6265    0.0000 </r>
       <r>   14.0895    0.0000 </r>
       <r>   15.7569    0.0000 </r>
       <r>   17.6014    0.0000 </r>
       <r>   19.0353    0.0000 </r>
       <r>   20.4496    0.0000 </r>
       <r>   22.1963    0.0000 </r>
       <r>   22.8179    0.0000 </r>
       <r>   25.1613    0.0000 </r>
       <r>   26.5282    0.0000 </r>
       <r>   26.8685    0.0000 </r>
       <r>   28.4132    0.0000 </r>
       <r>   31.4183    0.0000 </r>
       <r>   32.6313    0.0000 </r>
       <r>   32.8844    0.0000 </r>
       <r>   35.0750    0.0000 </r>
       <r>   35.9820    0.0000 </r>
       <r>   36.3014    0.0000 </r>
       <r>   37.4761    0.0000 </r>
       <r>   37.8173    0.0000 </r>
       <r>   38.6009    0.0000 </r>
       <r>   39.3504    0.0000 </r>
       <r>   40.8648    0.0000 </r>
       <r>   41.2537    0.0000 </r>
      </set>
      <set comment="kpoint 7">
       <r>   -4.2625    1.0000 </r>
       <r>   -0.2599    1.0000 </r>
       <r>    3.4067    1.0000 </r>
       <r>    3.9468    1.0000 </r>
       <r>    7.7483    0.0000 </r>
       <r>    9.3935    0.0000 </r>
       <r>   10.1295    0.0000 </r>
       <r>   11.3625    0.0000 </r>
       <r>   15.0299    0.0000 </r>
       <r>   15.7891    0.0000 </r>
       <r>   16.3814    0.0000 </r>
       <r>   17.7433    0.0000 </r>
       <r>   18.4976    0.0000 </r>
       <r>   21.1588    0.0000 </r>
       <r>   22.9369    0.0000 </r>
       <r>   23.0645    0.0000 </r>
       <r>   24.7396    0.0000 </r>
       <r>   26.9042    0.0000 </r>
       <r>   27.6137    0.0000 </r>
       <r>   29.0157    0.0000 </r>
       <r>   29.7791    0.0000 </r>
       <r>   30.2550    0.0000 </r>
       <r>   32.7143    0.0000 </r>
       <r>   33.5675    0.0000 </r>
       <r>   34.2008    0.0000 </r>
       <r>   34.9927    0.0000 </r>
       <r>   35.7233    0.0000 </r>
       <r>   36.4237    0.0000 </r>
       <r>   38.0725    0.0000 </r>
       <r>   38.5952    0.0000 </r>
       <r>   39.7119    0.0000 </r>
       <r>   40.6882    0.0000 </r>
      </set>
      <set comment="kpoint 8">
       <r>   -3.7186    1.0000 </r>
       <r>   -1.1044    1.0000 </r>
       <r>    3.0013    1.0000 </r>
       <r>    4.1394    1.0000 </r>
       <r>    7.8348    0.0000 </r>
       <r>    9.3175    0.0000 </r>
       <r>    9.7435    0.0000 </r>
       <r>   13.7108    0.0000 </r>
       <r>   14.2358    0.0000 </r>
       <r>   14.6088    0.0000 </r>
       <r>   16.4991    0.0000 </r>
       <r>   18.6490    0.0000 </r>
       <r>   19.1591    0.0000 </r>
       <r>   19.6381    0.0000 </r>
       <r>   23.5838    0.0000 </r>
       <r>   25.3827    0.0000 </r>
       <r>   25.9668    0.0000 </r>
       <r>   26.1101    0.0000 </r>
       <r>   27.2118    0.0000 </r>
       <r>   27.3299    0.0000 </r>
       <r>   30.2441    0.0000 </r>
       <r>   31.1115    0.0000 </r>
       <r>   31.7853    0.0000 </r>
       <r>   32.7545    0.0000 </r>
       <r>   32.9786    0.0000 </r>
       <r>   34.2343    0.0000 </r>
       <r>   35.0952    0.0000 </r>
       <r>   35.9666    0.0000 </r>
       <r>   38.0838    0.0000 </r>
       <r>   38.8310    0.0000 </r>
       <r>   39.0953    0.0000 </r>
       <r>   40.3198    0.0000 </r>
      </set>
      <set comment="kpoint 9">
       <r>   -4.6232    1.0000 </r>
       <r>    0.4071    1.0000 </r>
       <r>    3.0105    1.0000 </r>
       <r>    4.6428    1.0000 </r>
       <r>    8.2175    0.0000 </r>
       <r>    9.5005    0.0000 </r>
       <r>    9.5242    0.0000 </r>
       <r>   12.1847    0.0000 </r>
       <r>   12.3599    0.0000 </r>
       <r>   15.3851    0.0000 </r>
       <r>   16.6550    0.0000 </r>
       <r>   17.7226    0.0000 </r>
       <r>   19.6234    0.0000 </r>
       <r>   21.4092    0.0000 </r>
       <r>   21.6752    0.0000 </r>
       <r>   22.9585    0.0000 </r>
       <r>   24.6725    0.0000 </r>
       <r>   27.2013    0.0000 </r>
       <r>   27.6555    0.0000 </r>
       <r>   28.6881    0.0000 </r>
       <r>   30.1274    0.0000 </r>
       <r>   31.3020    0.0000 </r>
       <r>   32.6157    0.0000 </r>
       <r>   33.8806    0.0000 </r>
       <r>   34.3462    0.0000 </r>
       <r>   35.4052    0.0000 </r>
       <r>   35.6665    0.0000 </r>
       <r>   37.3853    0.0000 </r>
       <r>   38.8813    0.0000 </r>
       <r>   39.2843    0.0000 </r>
       <r>   39.3552    0.0000 </r>
       <r>   41.8115    0.0000 </r>
      </set>
      <set comment="kpoint 10">
       <r>   -5.5069    1.0000 </r>
       <r>    2.4940    1.0000 </r>
       <r>    3.6959    1.0000 </r>
       <r>    5.2245    1.0000 </r>
       <r>    8.6062    0.0000 </r>
       <r>    8.8932    0.0000 </r>
       <r>    9.1407    0.0000 </r>
       <r>   11.1559    0.0000 </r>
       <r>   11.8383    0.0000 </r>
       <r>   14.0485    0.0000 </r>
       <r>   15.6122    0.0000 </r>
       <r>   16.8398    0.0000 </r>
       <r>   18.2825    0.0000 </r>
       <r>   20.6375    0.0000 </r>
       <r>   22.1997    0.0000 </r>
       <r>   23.9832    0.0000 </r>
       <r>   26.2331    0.0000 </r>
       <r>   26.2358    0.0000 </r>
       <r>   26.6318    0.0000 </r>
       <r>   28.1768    0.0000 </r>
       <r>   31.8442    0.0000 </r>
       <r>   32.0632    0.0000 </r>
       <r>   34.4725    0.0000 </r>
       <r>   34.8663    0.0000 </r>
       <r>   36.0488    0.0000 </r>
       <r>   36.7637    0.0000 </r>
       <r>   37.8969    0.0000 </r>
       <r>   38.4215    0.0000 </r>
       <r>   39.2742    0.0000 </r>
       <r>   39.5086    0.0000 </r>
       <r>   40.5517    0.0000 </r>
       <r>   40.8148    0.0000 </r>
      </set>
      <set comment="kpoint 11">
       <r>   -4.8144    1.0000 </r>
       <r>    1.4655    1.0000 </r>
       <r>    3.5234    1.0000 </r>
       <r>    3.5234    1.0000 </r>
       <r>    6.5730    0.0000 </r>
       <r>    8.2440    0.0000 </r>
       <r>   11.9320    0.0000 </r>
       <r>   11.9320    0.0000 </r>
       <r>   14.2210    0.0000 </r>
       <r>   14.8792    0.0000 </r>
       <r>   17.6507    0.0000 </r>
       <r>   18.8883    0.0000 </r>
       <r>   18.8883    0.0000 </r>
       <r>   19.7899    0.0000 </r>
       <r>   22.1762    0.0000 </r>
       <r>   22.1762    0.0000 </r>
       <r>   22.8504    0.0000 </r>
       <r>   25.0749    0.0000 </r>
       <r>   27.2813    0.0000 </r>
       <r>   31.0677    0.0000 </r>
       <r>   31.0849    0.0000 </r>
       <r>   32.1267    0.0000 </r>
       <r>   32.1267    0.0000 </r>
       <r>   34.0460    0.0000 </r>
       <r>   34.1847    0.0000 </r>
       <r>   34.1847    0.0000 </r>
       <r>   34.2154    0.0000 </r>
       <r>   40.2317    0.0000 </r>
       <r>   40.3508    0.0000 </r>
       <r>   41.4635    0.0000 </r>
       <r>   41.4635    0.0000 </r>
       <r>   41.9969    0.0000 </r>
      </set>
      <set comment="kpoint 12">
       <r>   -3.9286    1.0000 </r>
       <r>   -0.0123    1.0000 </r>
       <r>    2.5657    1.0000 </r>
       <r>    3.2674    1.0000 </r>
       <r>    6.8561    0.0000 </r>
       <r>    8.3257    0.0000 </r>
       <r>   12.1398    0.0000 </r>
       <r>   12.3332    0.0000 </r>
       <r>   16.4338    0.0000 </r>
       <r>   16.6824    0.0000 </r>
       <r>   17.1443    0.0000 </r>
       <r>   17.7235    0.0000 </r>
       <r>   19.6299    0.0000 </r>
       <r>   20.5173    0.0000 </r>
       <r>   21.7721    0.0000 </r>
       <r>   23.3356    0.0000 </r>
       <r>   23.4207    0.0000 </r>
       <r>   24.9213    0.0000 </r>
       <r>   27.3053    0.0000 </r>
       <r>   28.0289    0.0000 </r>
       <r>   30.3595    0.0000 </r>
       <r>   30.3910    0.0000 </r>
       <r>   31.0990    0.0000 </r>
       <r>   32.8401    0.0000 </r>
       <r>   33.4931    0.0000 </r>
       <r>   34.2702    0.0000 </r>
       <r>   36.2516    0.0000 </r>
       <r>   37.9147    0.0000 </r>
       <r>   38.0666    0.0000 </r>
       <r>   40.1380    0.0000 </r>
       <r>   41.3110    0.0000 </r>
       <r>   42.1033    0.0000 </r>
      </set>
      <set comment="kpoint 13">
       <r>   -3.0328    1.0000 </r>
       <r>   -1.1646    1.0000 </r>
       <r>    1.6316    1.0000 </r>
       <r>    3.4323    1.0000 </r>
       <r>    7.0933    0.0000 </r>
       <r>   10.5383    0.0000 </r>
       <r>   11.8456    0.0000 </r>
       <r>   11.8737    0.0000 </r>
       <r>   14.5510    0.0000 </r>
       <r>   14.6202    0.0000 </r>
       <r>   18.9033    0.0000 </r>
       <r>   19.2453    0.0000 </r>
       <r>   19.6703    0.0000 </r>
       <r>   22.8351    0.0000 </r>
       <r>   22.9963    0.0000 </r>
       <r>   23.3583    0.0000 </r>
       <r>   23.6517    0.0000 </r>
       <r>   25.3894    0.0000 </r>
       <r>   25.8850    0.0000 </r>
       <r>   27.9188    0.0000 </r>
       <r>   29.3492    0.0000 </r>
       <r>   29.6773    0.0000 </r>
       <r>   29.8798    0.0000 </r>
       <r>   33.3105    0.0000 </r>
       <r>   33.5753    0.0000 </r>
       <r>   34.0732    0.0000 </r>
       <r>   34.5720    0.0000 </r>
       <r>   36.0757    0.0000 </r>
       <r>   38.1622    0.0000 </r>
       <r>   39.5261    0.0000 </r>
       <r>   40.6231    0.0000 </r>
       <r>   40.7728    0.0000 </r>
      </set>
      <set comment="kpoint 14">
       <r>   -3.6690    1.0000 </r>
       <r>   -0.4279    1.0000 </r>
       <r>    1.5611    1.0000 </r>
       <r>    3.9707    1.0000 </r>
       <r>    7.6836    0.0000 </r>
       <r>   11.0231    0.0000 </r>
       <r>   11.3604    0.0000 </r>
       <r>   12.1221    0.0000 </r>
       <r>   12.4951    0.0000 </r>
       <r>   13.6728    0.0000 </r>
       <r>   18.8362    0.0000 </r>
       <r>   19.4511    0.0000 </r>
       <r>   20.2866    0.0000 </r>
       <r>   22.0107    0.0000 </r>
       <r>   22.2065    0.0000 </r>
       <r>   23.2317    0.0000 </r>
       <r>   23.4161    0.0000 </r>
       <r>   25.8892    0.0000 </r>
       <r>   28.0737    0.0000 </r>
       <r>   28.5960    0.0000 </r>
       <r>   29.4384    0.0000 </r>
       <r>   30.7467    0.0000 </r>
       <r>   30.9631    0.0000 </r>
       <r>   32.1277    0.0000 </r>
       <r>   33.3182    0.0000 </r>
       <r>   34.1705    0.0000 </r>
       <r>   34.5236    0.0000 </r>
       <r>   35.0418    0.0000 </r>
       <r>   39.5414    0.0000 </r>
       <r>   40.0367    0.0000 </r>
       <r>   40.9135    0.0000 </r>
       <r>   42.2238    0.0000 </r>
      </set>
      <set comment="kpoint 15">
       <r>   -3.1572    1.0000 </r>
       <r>   -0.9960    1.0000 </r>
       <r>    2.9021    1.0000 </r>
       <r>    2.9021    1.0000 </r>
       <r>    6.2281    0.0000 </r>
       <r>    6.7450    0.0000 </r>
       <r>   14.5439    0.0000 </r>
       <r>   14.5439    0.0000 </r>
       <r>   16.8106    0.0000 </r>
       <r>   17.1662    0.0000 </r>
       <r>   17.5512    0.0000 </r>
       <r>   17.5512    0.0000 </r>
       <r>   19.1861    0.0000 </r>
       <r>   19.4856    0.0000 </r>
       <r>   22.6651    0.0000 </r>
       <r>   23.4263    0.0000 </r>
       <r>   23.4263    0.0000 </r>
       <r>   24.3941    0.0000 </r>
       <r>   27.3174    0.0000 </r>
       <r>   27.6530    0.0000 </r>
       <r>   27.6530    0.0000 </r>
       <r>   28.7228    0.0000 </r>
       <r>   29.9197    0.0000 </r>
       <r>   31.7472    0.0000 </r>
       <r>   34.5385    0.0000 </r>
       <r>   34.5385    0.0000 </r>
       <r>   36.6250    0.0000 </r>
       <r>   39.7166    0.0000 </r>
       <r>   39.7166    0.0000 </r>
       <r>   40.5985    0.0000 </r>
       <r>   40.9056    0.0000 </r>
       <r>   41.2299    0.0000 </r>
      </set>
      <set comment="kpoint 16">
       <r>   -2.2273    1.0000 </r>
       <r>   -1.9383    1.0000 </r>
       <r>    2.0327    1.0000 </r>
       <r>    2.9624    1.0000 </r>
       <r>    6.5285    0.0000 </r>
       <r>    7.7653    0.0000 </r>
       <r>   14.3236    0.0000 </r>
       <r>   14.7320    0.0000 </r>
       <r>   14.9738    0.0000 </r>
       <r>   15.2937    0.0000 </r>
       <r>   19.2026    0.0000 </r>
       <r>   19.2478    0.0000 </r>
       <r>   19.3977    0.0000 </r>
       <r>   20.2414    0.0000 </r>
       <r>   22.5757    0.0000 </r>
       <r>   23.0053    0.0000 </r>
       <r>   25.1601    0.0000 </r>
       <r>   25.7906    0.0000 </r>
       <r>   26.0312    0.0000 </r>
       <r>   26.8535    0.0000 </r>
       <r>   27.2820    0.0000 </r>
[...]
        <r>  0.0184  0.0049  0.0084  0.0260  0.0000  0.0000  0.0000  0.0000  0.0000 </r>
       </set>
       <set comment="band 12">
        <r>  0.0204  0.0216  0.0640  0.0175  0.0000  0.0000  0.0000  0.0000  0.0000 </r>
        <r>  0.0204  0.0216  0.0640  0.0175  0.0000  0.0000  0.0000  0.0000  0.0000 </r>
       </set>
       <set comment="band 13">
        <r>  0.0185  0.0414  0.0158  0.0661  0.0000  0.0000  0.0000  0.0000  0.0000 </r>
        <r>  0.0185  0.0414  0.0158  0.0661  0.0000  0.0000  0.0000  0.0000  0.0000 </r>
       </set>
       <set comment="band 14">
        <r>  0.0138  0.0020  0.0147  0.0264  0.0000  0.0000  0.0000  0.0000  0.0000 </r>
        <r>  0.0138  0.0020  0.0147  0.0264  0.0000  0.0000  0.0000  0.0000  0.0000 </r>
       </set>
       <set comment="band 15">
        <r>  0.0040  0.0359  0.0581  0.0232  0.0000  0.0000  0.0000  0.0000  0.0000 </r>
        <r>  0.0040  0.0359  0.0581  0.0232  0.0000  0.0000  0.0000  0.0000  0.0000 </r>
       </set>
       <set comment="band 16">
        <r>  0.0207  0.0071  0.0009  0.0324  0.0000  0.0000  0.0000  0.0000  0.0000 </r>
        <r>  0.0207  0.0071  0.0009  0.0324  0.0000  0.0000  0.0000  0.0000  0.0000 </r>
       </set>
       <set comment="band 17">
        <r>  0.0131  0.0019  0.0228  0.0100  0.0000  0.0000  0.0000  0.0000  0.0000 </r>
        <r>  0.0131  0.0019  0.0228  0.0100  0.0000  0.0000  0.0000  0.0000  0.0000 </r>
       </set>
       <set comment="band 18">
        <r>  0.0094  0.0057  0.0059  0.0143  0.0000  0.0000  0.0000  0.0000  0.0000 </r>
        <r>  0.0094  0.0057  0.0059  0.0143  0.0000  0.0000  0.0000  0.0000  0.0000 </r>
       </set>
       <set comment="band 19">
        <r>  0.0005  0.0468  0.0362  0.0153  0.0000  0.0000  0.0000  0.0000  0.0000 </r>
        <r>  0.0005  0.0468  0.0362  0.0153  0.0000  0.0000  0.0000  0.0000  0.0000 </r>
       </set>
       <set comment="band 20">
        <r>  0.0031  0.0004  0.0153  0.0041  0.0000  0.0000  0.0000  0.0000  0.0000 </r>
        <r>  0.0031  0.0004  0.0153  0.0041  0.0000  0.0000  0.0000  0.0000  0.0000 </r>
       </set>
       <set comment="band 21">
        <r>  0.0102  0.0300  0.0037  0.0059  0.0000  0.0000  0.0000  0.0000  0.0000 </r>
        <r>  0.0102  0.0300  0.0037  0.0059  0.0000  0.0000  0.0000  0.0000  0.0000 </r>
       </set>
       <set comment="band 22">
        <r>  0.0166  0.0015  0.0052  0.0150  0.0000  0.0000  0.0000  0.0000  0.0000 </r>
        <r>  0.0166  0.0015  0.0052  0.0150  0.0000  0.0000  0.0000  0.0000  0.0000 </r>
       </set>
       <set comment="band 23">
        <r>  0.0291  0.0412  0.0003  0.0030  0.0000  0.0000  0.0000  0.0000  0.0000 </r>
        <r>  0.0291  0.0412  0.0003  0.0030  0.0000  0.0000  0.0000  0.0000  0.0000 </r>
       </set>
       <set comment="band 24">
        <r>  0.0015  0.0080  0.0039  0.0061  0.0000  0.0000  0.0000  0.0000  0.0000 </r>
        <r>  0.0015  0.0080  0.0039  0.0061  0.0000  0.0000  0.0000  0.0000  0.0000 </r>
       </set>
       <set comment="band 25">
        <r>  0.0011  0.0055  0.0073  0.0144  0.0000  0.0000  0.0000  0.0000  0.0000 </r>
        <r>  0.0011  0.0055  0.0073  0.0144  0.0000  0.0000  0.0000  0.0000  0.0000 </r>
       </set>
       <set comment="band 26">
        <r>  0.0218  0.0190  0.0244  0.0009  0.0000  0.0000  0.0000  0.0000  0.0000 </r>
        <r>  0.0218  0.0190  0.0244  0.0009  0.0000  0.0000  0.0000  0.0000  0.0000 </r>
       </set>
       <set comment="band 27">
        <r>  0.0068  0.0046  0.0015  0.0095  0.0000  0.0000  0.0000  0.0000  0.0000 </r>
        <r>  0.0068  0.0046  0.0015  0.0095  0.0000  0.0000  0.0000  0.0000  0.0000 </r>
       </set>
       <set comment="band 28">
        <r>  0.0000  0.0377  0.0030  0.0216  0.0000  0.0000  0.0000  0.0000  0.0000 </r>
        <r>  0.0000  0.0377  0.0030  0.0216  0.0000  0.0000  0.0000  0.0000  0.0000 </r>
       </set>
       <set comment="band 29">
        <r>  0.0084  0.0000  0.0007  0.0028  0.0000  0.0000  0.0000  0.0000  0.0000 </r>
        <r>  0.0084  0.0000  0.0007  0.0028  0.0000  0.0000  0.0000  0.0000  0.0000 </r>
       </set>
       <set comment="band 30">
        <r>  0.0008  0.0054  0.0120  0.0116  0.0000  0.0000  0.0000  0.0000  0.0000 </r>
        <r>  0.0008  0.0054  0.0120  0.0116  0.0000  0.0000  0.0000  0.0000  0.0000 </r>
       </set>
       <set comment="band 31">
        <r>  0.0312  0.0046  0.0038  0.0138  0.0000  0.0000  0.0000  0.0000  0.0000 </r>
        <r>  0.0312  0.0046  0.0038  0.0138  0.0000  0.0000  0.0000  0.0000  0.0000 </r>
       </set>
       <set comment="band 32">
        <r>  0.0114  0.0052  0.0251  0.0016  0.0000  0.0000  0.0000  0.0000  0.0000 </r>
        <r>  0.0114  0.0052  0.0251  0.0016  0.0000  0.0000  0.0000  0.0000  0.0000 </r>
       </set>
      </set>
      <set comment="kpoint 19">
       <set comment="band 1">
        <r>  0.2027  0.0008  0.0032  0.0283  0.0000  0.0000  0.0000  0.0000  0.0000 </r>
        <r>  0.2027  0.0008  0.0032  0.0283  0.0000  0.0000  0.0000  0.0000  0.0000 </r>
       </set>
       <set comment="band 2">
        <r>  0.1922  0.0007  0.0114  0.0422  0.0000  0.0000  0.0000  0.0000  0.0000 </r>
        <r>  0.1922  0.0007  0.0114  0.0422  0.0000  0.0000  0.0000  0.0000  0.0000 </r>
       </set>
       <set comment="band 3">
        <r>  0.0062  0.0669  0.0787  0.0180  0.0000  0.0000  0.0000  0.0000  0.0000 </r>
        <r>  0.0062  0.0669  0.0787  0.0180  0.0000  0.0000  0.0000  0.0000  0.0000 </r>
       </set>
       <set comment="band 4">
        <r>  0.0000  0.0852  0.0613  0.0267  0.0000  0.0000  0.0000  0.0000  0.0000 </r>
        <r>  0.0000  0.0852  0.0613  0.0266  0.0000  0.0000  0.0000  0.0000  0.0000 </r>
       </set>
       <set comment="band 5">
        <r>  0.0362  0.0291  0.0207  0.0308  0.0000  0.0000  0.0000  0.0000  0.0000 </r>
        <r>  0.0362  0.0291  0.0207  0.0307  0.0000  0.0000  0.0000  0.0000  0.0000 </r>
       </set>
       <set comment="band 6">
        <r>  0.0369  0.0284  0.0133  0.0210  0.0000  0.0000  0.0000  0.0000  0.0000 </r>
        <r>  0.0369  0.0284  0.0133  0.0210  0.0000  0.0000  0.0000  0.0000  0.0000 </r>
       </set>
       <set comment="band 7">
        <r>  0.0316  0.0533  0.0363  0.0252  0.0000  0.0000  0.0000  0.0000  0.0000 </r>
        <r>  0.0316  0.0533  0.0363  0.0252  0.0000  0.0000  0.0000  0.0000  0.0000 </r>
       </set>
       <set comment="band 8">
        <r>  0.0164  0.0803  0.0661  0.0209  0.0000  0.0000  0.0000  0.0000  0.0000 </r>
        <r>  0.0164  0.0803  0.0661  0.0209  0.0000  0.0000  0.0000  0.0000  0.0000 </r>
       </set>
       <set comment="band 9">
        <r>  0.0003  0.0124  0.0453  0.0343  0.0000  0.0000  0.0000  0.0000  0.0000 </r>
        <r>  0.0003  0.0124  0.0453  0.0343  0.0000  0.0000  0.0000  0.0000  0.0000 </r>
       </set>
       <set comment="band 10">
        <r>  0.0286  0.0126  0.0016  0.0787  0.0000  0.0000  0.0000  0.0000  0.0000 </r>
        <r>  0.0286  0.0126  0.0016  0.0787  0.0000  0.0000  0.0000  0.0000  0.0000 </r>
       </set>
       <set comment="band 11">
        <r>  0.0068  0.0242  0.0823  0.0009  0.0000  0.0000  0.0000  0.0000  0.0000 </r>
        <r>  0.0068  0.0242  0.0823  0.0009  0.0000  0.0000  0.0000  0.0000  0.0000 </r>
       </set>
       <set comment="band 12">
        <r>  0.0057  0.0012  0.0085  0.1097  0.0000  0.0000  0.0000  0.0000  0.0000 </r>
        <r>  0.0057  0.0012  0.0085  0.1097  0.0000  0.0000  0.0000  0.0000  0.0000 </r>
       </set>
       <set comment="band 13">
        <r>  0.0287  0.0288  0.0141  0.0711  0.0000  0.0000  0.0000  0.0000  0.0000 </r>
        <r>  0.0287  0.0288  0.0141  0.0711  0.0000  0.0000  0.0000  0.0000  0.0000 </r>
       </set>
       <set comment="band 14">
        <r>  0.0000  0.0008  0.0169  0.0039  0.0000  0.0000  0.0000  0.0000  0.0000 </r>
        <r>  0.0000  0.0008  0.0169  0.0039  0.0000  0.0000  0.0000  0.0000  0.0000 </r>
       </set>
       <set comment="band 15">
        <r>  0.0206  0.0117  0.0037  0.0159  0.0000  0.0000  0.0000  0.0000  0.0000 </r>
        <r>  0.0206  0.0117  0.0037  0.0159  0.0000  0.0000  0.0000  0.0000  0.0000 </r>
       </set>
       <set comment="band 16">
        <r>  0.0256  0.0004  0.0110  0.0406  0.0000  0.0000  0.0000  0.0000  0.0000 </r>
        <r>  0.0256  0.0004  0.0110  0.0406  0.0000  0.0000  0.0000  0.0000  0.0000 </r>
       </set>
       <set comment="band 17">
        <r>  0.0006  0.0213  0.0084  0.0111  0.0000  0.0000  0.0000  0.0000  0.0000 </r>
        <r>  0.0006  0.0213  0.0084  0.0111  0.0000  0.0000  0.0000  0.0000  0.0000 </r>
       </set>
       <set comment="band 18">
        <r>  0.0055  0.0021  0.0297  0.0008  0.0000  0.0000  0.0000  0.0000  0.0000 </r>
        <r>  0.0055  0.0021  0.0297  0.0008  0.0000  0.0000  0.0000  0.0000  0.0000 </r>
       </set>
       <set comment="band 19">
        <r>  0.0139  0.0604  0.0207  0.0000  0.0000  0.0000  0.0000  0.0000  0.0000 </r>
        <r>  0.0139  0.0604  0.0207  0.0000  0.0000  0.0000  0.0000  0.0000  0.0000 </r>
       </set>
       <set comment="band 20">
        <r>  0.0245  0.0107  0.0189  0.0236  0.0000  0.0000  0.0000  0.0000  0.0000 </r>
        <r>  0.0245  0.0107  0.0189  0.0236  0.0000  0.0000  0.0000  0.0000  0.0000 </r>
       </set>
       <set comment="band 21">
        <r>  0.0006  0.0016  0.0046  0.0000  0.0000  0.0000  0.0000  0.0000  0.0000 </r>
        <r>  0.0006  0.0016  0.0046  0.0000  0.0000  0.0000  0.0000  0.0000  0.0000 </r>
       </set>
       <set comment="band 22">
        <r>  0.0309  0.0000  0.0286  0.0031  0.0000  0.0000  0.0000  0.0000  0.0000 </r>
        <r>  0.0309  0.0000  0.0286  0.0031  0.0000  0.0000  0.0000  0.0000  0.0000 </r>
       </set>
       <set comment="band 23">
        <r>  0.0092  0.0538  0.0001  0.0162  0.0000  0.0000  0.0000  0.0000  0.0000 </r>
        <r>  0.0092  0.0538  0.0001  0.0162  0.0000  0.0000  0.0000  0.0000  0.0000 </r>
       </set>
       <set comment="band 24">
        <r>  0.0000  0.0051  0.0017  0.0020  0.0000  0.0000  0.0000  0.0000  0.0000 </r>
        <r>  0.0000  0.0051  0.0017  0.0020  0.0000  0.0000  0.0000  0.0000  0.0000 </r>
       </set>
       <set comment="band 25">
        <r>  0.0267  0.0269  0.0008  0.0002  0.0000  0.0000  0.0000  0.0000  0.0000 </r>
        <r>  0.0267  0.0269  0.0008  0.0002  0.0000  0.0000  0.0000  0.0000  0.0000 </r>
       </set>
       <set comment="band 26">
        <r>  0.0001  0.0002  0.0286  0.0072  0.0000  0.0000  0.0000  0.0000  0.0000 </r>
        <r>  0.0001  0.0002  0.0286  0.0072  0.0000  0.0000  0.0000  0.0000  0.0000 </r>
       </set>
       <set comment="band 27">
        <r>  0.0273  0.0202  0.0007  0.0118  0.0000  0.0000  0.0000  0.0000  0.0000 </r>
        <r>  0.0273  0.0202  0.0007  0.0118  0.0000  0.0000  0.0000  0.0000  0.0000 </r>
       </set>
       <set comment="band 28">
        <r>  0.0010  0.0096  0.0006  0.0021  0.0000  0.0000  0.0000  0.0000  0.0000 </r>
        <r>  0.0010  0.0096  0.0006  0.0021  0.0000  0.0000  0.0000  0.0000  0.0000 </r>
       </set>
       <set comment="band 29">
        <r>  0.0020  0.0219  0.0013  0.0008  0.0000  0.0000  0.0000  0.0000  0.0000 </r>
        <r>  0.0020  0.0219  0.0013  0.0008  0.0000  0.0000  0.0000  0.0000  0.0000 </r>
       </set>
       <set comment="band 30">
        <r>  0.0104  0.0064  0.0229  0.0021  0.0000  0.0000  0.0000  0.0000  0.0000 </r>
        <r>  0.0104  0.0064  0.0229  0.0021  0.0000  0.0000  0.0000  0.0000  0.0000 </r>
       </set>
       <set comment="band 31">
        <r>  0.0155  0.0002  0.0237  0.0011  0.0000  0.0000  0.0000  0.0000  0.0000 </r>
        <r>  0.0155  0.0002  0.0237  0.0011  0.0000  0.0000  0.0000  0.0000  0.0000 </r>
       </set>
       <set comment="band 32">
        <r>  0.0001  0.0040  0.0238  0.0129  0.0000  0.0000  0.0000  0.0000  0.0000 </r>
        <r>  0.0001  0.0040  0.0237  0.0129  0.0000  0.0000  0.0000  0.0000  0.0000 </r>
       </set>
      </set>
      <set comment="kpoint 20">
       <set comment="band 1">
        <r>  0.2110  0.0015  0.0142  0.0168  0.0000  0.0000  0.0000  0.0000  0.0000 </r>
        <r>  0.2110  0.0015  0.0142  0.0168  0.0000  0.0000  0.0000  0.0000  0.0000 </r>
       </set>
       <set comment="band 2">
        <r>  0.1905  0.0022  0.0150  0.0343  0.0000  0.0000  0.0000  0.0000  0.0000 </r>
        <r>  0.1905  0.0022  0.0150  0.0343  0.0000  0.0000  0.0000  0.0000  0.0000 </r>
       </set>
       <set comment="band 3">
        <r>  0.0008  0.0592  0.0442  0.0509  0.0000  0.0000  0.0000  0.0000  0.0000 </r>
        <r>  0.0008  0.0592  0.0442  0.0509  0.0000  0.0000  0.0000  0.0000  0.0000 </r>
       </set>
       <set comment="band 4">
        <r>  0.0027  0.0806  0.0695  0.0217  0.0000  0.0000  0.0000  0.0000  0.0000 </r>
        <r>  0.0027  0.0806  0.0695  0.0217  0.0000  0.0000  0.0000  0.0000  0.0000 </r>
       </set>
       <set comment="band 5">
        <r>  0.0357  0.0369  0.0121  0.0270  0.0000  0.0000  0.0000  0.0000  0.0000 </r>
        <r>  0.0357  0.0369  0.0121  0.0270  0.0000  0.0000  0.0000  0.0000  0.0000 </r>
       </set>
       <set comment="band 6">
        <r>  0.0034  0.0800  0.0048  0.0008  0.0000  0.0000  0.0000  0.0000  0.0000 </r>
        <r>  0.0034  0.0800  0.0048  0.0008  0.0000  0.0000  0.0000  0.0000  0.0000 </r>
       </set>
       <set comment="band 7">
        <r>  0.0456  0.0068  0.0641  0.0518  0.0000  0.0000  0.0000  0.0000  0.0000 </r>
        <r>  0.0456  0.0068  0.0641  0.0518  0.0000  0.0000  0.0000  0.0000  0.0000 </r>
       </set>
       <set comment="band 8">
        <r>  0.0381  0.0413  0.0245  0.0298  0.0000  0.0000  0.0000  0.0000  0.0000 </r>
        <r>  0.0381  0.0413  0.0245  0.0298  0.0000  0.0000  0.0000  0.0000  0.0000 </r>
       </set>
       <set comment="band 9">
        <r>  0.0065  0.0381  0.0328  0.0684  0.0000  0.0000  0.0000  0.0000  0.0000 </r>
        <r>  0.0065  0.0381  0.0328  0.0684  0.0000  0.0000  0.0000  0.0000  0.0000 </r>
       </set>
       <set comment="band 10">
        <r>  0.0181  0.0177  0.0776  0.0015  0.0000  0.0000  0.0000  0.0000  0.0000 </r>
        <r>  0.0181  0.0177  0.0776  0.0015  0.0000  0.0000  0.0000  0.0000  0.0000 </r>
       </set>
       <set comment="band 11">
        <r>  0.0111  0.0192  0.0008  0.1037  0.0000  0.0000  0.0000  0.0000  0.0000 </r>
        <r>  0.0111  0.0192  0.0008  0.1037  0.0000  0.0000  0.0000  0.0000  0.0000 </r>
       </set>
       <set comment="band 12">
        <r>  0.0082  0.0028  0.0833  0.0312  0.0000  0.0000  0.0000  0.0000  0.0000 </r>
        <r>  0.0082  0.0028  0.0833  0.0312  0.0000  0.0000  0.0000  0.0000  0.0000 </r>
       </set>
       <set comment="band 13">
        <r>  0.0072  0.0051  0.0139  0.0118  0.0000  0.0000  0.0000  0.0000  0.0000 </r>
        <r>  0.0072  0.0051  0.0139  0.0118  0.0000  0.0000  0.0000  0.0000  0.0000 </r>
       </set>
       <set comment="band 14">
        <r>  0.0268  0.0043  0.0016  0.0005  0.0000  0.0000  0.0000  0.0000  0.0000 </r>
        <r>  0.0268  0.0043  0.0016  0.0005  0.0000  0.0000  0.0000  0.0000  0.0000 </r>
       </set>
       <set comment="band 15">
        <r>  0.0030  0.0284  0.0330  0.0640  0.0000  0.0000  0.0000  0.0000  0.0000 </r>
        <r>  0.0030  0.0284  0.0330  0.0640  0.0000  0.0000  0.0000  0.0000  0.0000 </r>
       </set>
       <set comment="band 16">
        <r>  0.0011  0.0307  0.0072  0.0758  0.0000  0.0000  0.0000  0.0000  0.0000 </r>
        <r>  0.0011  0.0307  0.0072  0.0758  0.0000  0.0000  0.0000  0.0000  0.0000 </r>
       </set>
       <set comment="band 17">
        <r>  0.0163  0.0169  0.0303  0.0011  0.0000  0.0000  0.0000  0.0000  0.0000 </r>
        <r>  0.0163  0.0169  0.0303  0.0011  0.0000  0.0000  0.0000  0.0000  0.0000 </r>
       </set>
       <set comment="band 18">
        <r>  0.0306  0.0159  0.0000  0.0008  0.0000  0.0000  0.0000  0.0000  0.0000 </r>
        <r>  0.0306  0.0159  0.0000  0.0008  0.0000  0.0000  0.0000  0.0000  0.0000 </r>
       </set>
       <set comment="band 19">
        <r>  0.0264  0.0011  0.0171  0.0063  0.0000  0.0000  0.0000  0.0000  0.0000 </r>
        <r>  0.0264  0.0011  0.0171  0.0063  0.0000  0.0000  0.0000  0.0000  0.0000 </r>
       </set>
       <set comment="band 20">
        <r>  0.0005  0.0003  0.0484  0.0024  0.0000  0.0000  0.0000  0.0000  0.0000 </r>
        <r>  0.0005  0.0003  0.0484  0.0024  0.0000  0.0000  0.0000  0.0000  0.0000 </r>
       </set>
       <set comment="band 21">
        <r>  0.0005  0.0497  0.0003  0.0044  0.0000  0.0000  0.0000  0.0000  0.0000 </r>
        <r>  0.0005  0.0497  0.0003  0.0044  0.0000  0.0000  0.0000  0.0000  0.0000 </r>
       </set>
       <set comment="band 22">
        <r>  0.0143  0.0529  0.0007  0.0048  0.0000  0.0000  0.0000  0.0000  0.0000 </r>
        <r>  0.0143  0.0529  0.0007  0.0048  0.0000  0.0000  0.0000  0.0000  0.0000 </r>
       </set>
       <set comment="band 23">
        <r>  0.0005  0.0004  0.0008  0.0016  0.0000  0.0000  0.0000  0.0000  0.0000 </r>
        <r>  0.0005  0.0004  0.0008  0.0016  0.0000  0.0000  0.0000  0.0000  0.0000 </r>
       </set>
       <set comment="band 24">
        <r>  0.0016  0.0249  0.0025  0.0017  0.0000  0.0000  0.0000  0.0000  0.0000 </r>
        <r>  0.0016  0.0249  0.0025  0.0017  0.0000  0.0000  0.0000  0.0000  0.0000 </r>
       </set>
       <set comment="band 25">
        <r>  0.0000  0.0157  0.0034  0.0030  0.0000  0.0000  0.0000  0.0000  0.0000 </r>
        <r>  0.0000  0.0157  0.0034  0.0030  0.0000  0.0000  0.0000  0.0000  0.0000 </r>
       </set>
       <set comment="band 26">
        <r>  0.0635  0.0005  0.0012  0.0089  0.0000  0.0000  0.0000  0.0000  0.0000 </r>
        <r>  0.0635  0.0005  0.0012  0.0089  0.0000  0.0000  0.0000  0.0000  0.0000 </r>
       </set>
       <set comment="band 27">
        <r>  0.0011  0.0029  0.0045  0.0019  0.0000  0.0000  0.0000  0.0000  0.0000 </r>
        <r>  0.0011  0.0029  0.0045  0.0019  0.0000  0.0000  0.0000  0.0000  0.0000 </r>
       </set>
       <set comment="band 28">
        <r>  0.0217  0.0070  0.0156  0.0061  0.0000  0.0000  0.0000  0.0000  0.0000 </r>
        <r>  0.0217  0.0070  0.0156  0.0061  0.0000  0.0000  0.0000  0.0000  0.0000 </r>
       </set>
       <set comment="band 29">
        <r>  0.0010  0.0246  0.0224  0.0006  0.0000  0.0000  0.0000  0.0000  0.0000 </r>
        <r>  0.0010  0.0246  0.0224  0.0006  0.0000  0.0000  0.0000  0.0000  0.0000 </r>
       </set>
       <set comment="band 30">
        <r>  0.0186  0.0009  0.0050  0.0009  0.0000  0.0000  0.0000  0.0000  0.0000 </r>
        <r>  0.0186  0.0009  0.0050  0.0009  0.0000  0.0000  0.0000  0.0000  0.0000 </r>
       </set>
       <set comment="band 31">
        <r>  0.0079  0.0053  0.0176  0.0041  0.0000  0.0000  0.0000  0.0000  0.0000 </r>
        <r>  0.0079  0.0053  0.0176  0.0041  0.0000  0.0000  0.0000  0.0000  0.0000 </r>
       </set>
       <set comment="band 32">
        <r>  0.0057  0.0061  0.0001  0.0122  0.0000  0.0000  0.0000  0.0000  0.0000 </r>
        <r>  0.0057  0.0061  0.0001  0.0122  0.0000  0.0000  0.0000  0.0000  0.0000 </r>
       </set>
      </set>
     </set>
    </set>
   </array>
  </projected>
 </calculation>
 <structure name="finalpos" >
  <crystal>
   <varray name="basis" >
    <v>      -2.73461824      -2.73461824      -0.00000000 </v>
    <v>      -2.73461824      -0.00000000      -2.73461824 </v>
    <v>      -0.00000000      -2.73461824      -2.73461824 </v>
   </varray>
   <i name="volume">     40.89969909 </i>
   <varray name="rec_basis" >
    <v>      -0.18284088      -0.18284088       0.18284088 </v>
    <v>      -0.18284088       0.18284088      -0.18284088 </v>
    <v>       0.18284088      -0.18284088      -0.18284088 </v>
   </varray>
  </crystal>
  <varray name="positions" >
   <v>       0.75000000       0.75000000       0.75000000 </v>
   <v>       0.00000000       0.00000000       0.00000000 </v>
  </varray>
 </structure>
</modeling>
