unknown system                          
           1
    -2.721851   -2.721851    0.000000
    -2.721851    0.000000   -2.721851
    -0.000000   -2.721851   -2.721851
   Si
     2
Direct configuration=     1
   0.75000000  0.75000000  0.75000000
   0.00000000  0.00000000  0.00000000
unknown system                          
           1
    -2.742505   -2.742505   -0.000000
    -2.742505   -0.000000   -2.742505
    -0.000000   -2.742505   -2.742505
   Si
     2
Direct configuration=     2
   0.75000000  0.75000000  0.75000000
   0.00000000  0.00000000  0.00000000
unknown system                          
           1
    -2.734618   -2.734618   -0.000000
    -2.734618   -0.000000   -2.734618
    -0.000000   -2.734618   -2.734618
   Si
     2
Direct configuration=     3
   0.75000000  0.75000000  0.75000000
   0.00000000  0.00000000  0.00000000
