<?xml version="1.0" encoding="ISO-8859-1"?>
<modeling>
 <generator>
  <i name="program" type="string">vasp </i>
  <i name="version" type="string">6.3.2  </i>
  <i name="subversion" type="string">27Jun22 (build May 29 2024 20:51:42) complex                          parallel </i>
  <i name="platform" type="string">LinuxIFC </i>
  <i name="date" type="string">2026 05 24 </i>
  <i name="time" type="string">12:16:29 </i>
 </generator>
 <incar>
  <i type="string" name="PREC">Accurate</i>
  <i type="string" name="ALGO">Fast</i>
  <i type="int" name="ISPIN">     1</i>
  <i type="int" name="ICHARG">    11</i>
  <i type="int" name="NELM">    60</i>
  <i type="int" name="NELMIN">     5</i>
  <i name="EDIFF">      0.00010000</i>
  <i type="int" name="NSW">     0</i>
  <i type="int" name="ISYM">     2</i>
  <i name="ENCUT">    520.00000000</i>
  <i type="int" name="NBANDS">    39</i>
  <i type="int" name="NEDOS">  2001</i>
  <i type="logical" name="LREAL"> F  </i>
  <i type="int" name="ISMEAR">    -5</i>
  <i name="SIGMA">      0.05000000</i>
  <i type="logical" name="LWAVE"> F  </i>
  <i type="logical" name="LCHARG"> F  </i>
  <i type="logical" name="LVHAR"> F  </i>
  <i type="int" name="LORBIT">    11</i>
  <i type="logical" name="LASPH"> T  </i>
  <i type="logical" name="LAECHG"> F  </i>
 </incar>
 <primitive_cell>
  <structure name="primitive_cell" >
   <crystal>
    <varray name="basis" >
     <v>       0.00000000       2.73461824       2.73461824 </v>
     <v>       2.73461824       0.00000000       2.73461824 </v>
     <v>       2.73461824       2.73461824       0.00000000 </v>
    </varray>
    <i name="volume">     40.89969924 </i>
    <varray name="rec_basis" >
     <v>      -0.18284088       0.18284088       0.18284088 </v>
     <v>       0.18284088      -0.18284088       0.18284088 </v>
     <v>       0.18284088       0.18284088      -0.18284088 </v>
    </varray>
   </crystal>
   <varray name="positions" >
    <v>       0.25000000       0.25000000       0.25000000 </v>
    <v>       0.00000000       0.00000000       0.00000000 </v>
   </varray>
  </structure>
  <varray name="primitive_index" >
   <v type="int" >        1 </v>
   <v type="int" >        2 </v>
  </varray>
 </primitive_cell>
 <kpoints>
  <generation param="Gamma">
   <v type="int" name="divisions">      10       10       10 </v>
   <v name="usershift">      0.00000000       0.00000000       0.00000000 </v>
   <v name="genvec1">      0.10000000      -0.00000000       0.00000000 </v>
   <v name="genvec2">     -0.00000000       0.10000000      -0.00000000 </v>
   <v name="genvec3">      0.00000000       0.00000000       0.10000000 </v>
   <v name="shift">      0.00000000       0.00000000       0.00000000 </v>
  </generation>
  <varray name="kpointlist" >
   <v>       0.00000000       0.00000000       0.00000000 </v>
   <v>       0.10000000      -0.00000000       0.00000000 </v>
   <v>       0.20000000       0.00000000      -0.00000000 </v>
   <v>       0.30000000       0.00000000       0.00000000 </v>
   <v>       0.40000000       0.00000000      -0.00000000 </v>
   <v>       0.50000000       0.00000000       0.00000000 </v>
   <v>       0.10000000       0.10000000      -0.00000000 </v>
   <v>       0.20000000       0.10000000       0.00000000 </v>
   <v>       0.30000000       0.10000000      -0.00000000 </v>
   <v>       0.40000000       0.10000000       0.00000000 </v>
   <v>       0.50000000       0.10000000      -0.00000000 </v>
   <v>      -0.40000000       0.10000000      -0.00000000 </v>
   <v>      -0.30000000       0.10000000       0.00000000 </v>
   <v>      -0.20000000       0.10000000      -0.00000000 </v>
   <v>      -0.10000000       0.10000000       0.00000000 </v>
   <v>       0.20000000       0.20000000      -0.00000000 </v>
   <v>       0.30000000       0.20000000       0.00000000 </v>
   <v>       0.40000000       0.20000000      -0.00000000 </v>
   <v>       0.50000000       0.20000000       0.00000000 </v>
   <v>      -0.40000000       0.20000000      -0.00000000 </v>
   <v>      -0.30000000       0.20000000      -0.00000000 </v>
   <v>      -0.20000000       0.20000000       0.00000000 </v>
   <v>       0.30000000       0.30000000      -0.00000000 </v>
   <v>       0.40000000       0.30000000       0.00000000 </v>
   <v>       0.50000000       0.30000000      -0.00000000 </v>
   <v>      -0.40000000       0.30000000       0.00000000 </v>
   <v>      -0.30000000       0.30000000      -0.00000000 </v>
   <v>       0.40000000       0.40000000       0.00000000 </v>
   <v>       0.50000000       0.40000000       0.00000000 </v>
   <v>      -0.40000000       0.40000000      -0.00000000 </v>
   <v>       0.50000000       0.50000000      -0.00000000 </v>
   <v>       0.30000000       0.20000000       0.10000000 </v>
   <v>       0.40000000       0.20000000       0.10000000 </v>
   <v>       0.50000000       0.20000000       0.10000000 </v>
   <v>      -0.40000000       0.20000000       0.10000000 </v>
   <v>       0.40000000       0.30000000       0.10000000 </v>
   <v>       0.50000000       0.30000000       0.10000000 </v>
   <v>      -0.40000000       0.30000000       0.10000000 </v>
   <v>      -0.30000000       0.30000000       0.10000000 </v>
   <v>      -0.20000000       0.30000000       0.10000000 </v>
   <v>       0.50000000       0.40000000       0.10000000 </v>
   <v>      -0.40000000       0.40000000       0.10000000 </v>
   <v>      -0.30000000       0.40000000       0.10000000 </v>
   <v>      -0.40000000       0.50000000       0.10000000 </v>
   <v>      -0.40000000       0.40000000       0.20000000 </v>
   <v>      -0.30000000       0.40000000       0.20000000 </v>
   <v>      -0.30000000       0.50000000       0.20000000 </v>
  </varray>
  <varray name="weights" >
   <v>       0.00100000 </v>
   <v>       0.00800000 </v>
   <v>       0.00800000 </v>
   <v>       0.00800000 </v>
   <v>       0.00800000 </v>
   <v>       0.00400000 </v>
   <v>       0.00600000 </v>
   <v>       0.02400000 </v>
   <v>       0.02400000 </v>
   <v>       0.02400000 </v>
   <v>       0.02400000 </v>
   <v>       0.02400000 </v>
   <v>       0.02400000 </v>
   <v>       0.02400000 </v>
   <v>       0.01200000 </v>
   <v>       0.00600000 </v>
   <v>       0.02400000 </v>
   <v>       0.02400000 </v>
   <v>       0.02400000 </v>
   <v>       0.02400000 </v>
   <v>       0.02400000 </v>
   <v>       0.01200000 </v>
   <v>       0.00600000 </v>
   <v>       0.02400000 </v>
   <v>       0.02400000 </v>
   <v>       0.02400000 </v>
   <v>       0.01200000 </v>
   <v>       0.00600000 </v>
   <v>       0.02400000 </v>
   <v>       0.01200000 </v>
   <v>       0.00300000 </v>
   <v>       0.02400000 </v>
   <v>       0.04800000 </v>
   <v>       0.04800000 </v>
   <v>       0.02400000 </v>
   <v>       0.02400000 </v>
   <v>       0.04800000 </v>
   <v>       0.04800000 </v>
   <v>       0.04800000 </v>
   <v>       0.02400000 </v>
   <v>       0.02400000 </v>
   <v>       0.04800000 </v>
   <v>       0.02400000 </v>
   <v>       0.01200000 </v>
   <v>       0.02400000 </v>
   <v>       0.02400000 </v>
   <v>       0.01200000 </v>
  </varray>
  <varray name="tetrahedronlist"  type="int" >
   <v type="int" >       48        2        3        8       15 </v>
   <v type="int" >       48        8       14       15       32 </v>
   <v type="int" >       24       14       14       15       32 </v>
   <v type="int" >       48        3        8       14       15 </v>
   <v type="int" >       48       14       22       32       33 </v>
   <v type="int" >       48       13       14       22       33 </v>
   <v type="int" >       24       14       14       22       32 </v>
   <v type="int" >       48       13       21       33       34 </v>
   <v type="int" >       48       12       13       21       34 </v>
   <v type="int" >       48       13       21       22       33 </v>
   <v type="int" >       48       12       20       34       35 </v>
   <v type="int" >       48       11       12       20       35 </v>
   <v type="int" >       48       12       20       21       34 </v>
   <v type="int" >       48       11       19       34       35 </v>
   <v type="int" >       48       10       11       19       34 </v>
   <v type="int" >       48       11       19       20       35 </v>
   <v type="int" >       48       10       18       33       34 </v>
   <v type="int" >       48        9       10       18       33 </v>
   <v type="int" >       48       10       18       19       34 </v>
   <v type="int" >       48        9       17       32       33 </v>
   <v type="int" >       48        8        9       17       32 </v>
   <v type="int" >       48        9       17       18       33 </v>
   <v type="int" >       24        8        8       16       32 </v>
   <v type="int" >       24        7        8        8       16 </v>
   <v type="int" >       48        8       16       17       32 </v>
   <v type="int" >       24        7        8        8       15 </v>
   <v type="int" >       48        2        7        8       15 </v>
   <v type="int" >       48        8        9       14       32 </v>
   <v type="int" >       48        3        8        9       14 </v>
   <v type="int" >       48       17       32       33       36 </v>
   <v type="int" >       24       32       33       33       36 </v>
   <v type="int" >       24       22       32       33       33 </v>
   <v type="int" >       48        9       14       32       33 </v>
   <v type="int" >       48       33       36       37       40 </v>
   <v type="int" >       48       33       34       37       40 </v>
   <v type="int" >       48       21       33       34       40 </v>
   <v type="int" >       24       33       33       36       40 </v>
   <v type="int" >       24       22       33       33       40 </v>
   <v type="int" >       48       21       22       33       40 </v>
   <v type="int" >       48       34       37       38       39 </v>
   <v type="int" >       48       34       35       38       39 </v>
   <v type="int" >       48       20       34       35       39 </v>
   <v type="int" >       48       34       37       39       40 </v>
   <v type="int" >       48       21       34       39       40 </v>
   <v type="int" >       48       20       21       34       39 </v>
   <v type="int" >       48       35       38       38       39 </v>
   <v type="int" >       48       19       34       35       38 </v>
   <v type="int" >       48       20       35       38       39 </v>
   <v type="int" >       48       19       20       35       38 </v>
   <v type="int" >       48       18       33       34       37 </v>
   <v type="int" >       48       19       34       37       38 </v>
   <v type="int" >       48       18       19       34       37 </v>
   <v type="int" >       48       18       33       36       37 </v>
   <v type="int" >       48       17       18       33       36 </v>
   <v type="int" >       24       17       17       32       36 </v>
   <v type="int" >       24       16       17       17       32 </v>
   <v type="int" >       24        8        8       15       32 </v>
   <v type="int" >       48       17       18       24       36 </v>
   <v type="int" >       48       24       36       37       41 </v>
   <v type="int" >       24       36       37       37       41 </v>
   <v type="int" >       24       36       37       37       40 </v>
   <v type="int" >       48       18       24       36       37 </v>
   <v type="int" >       48       37       41       42       45 </v>
   <v type="int" >       48       37       38       42       45 </v>
   <v type="int" >       48       37       38       39       45 </v>
   <v type="int" >       24       37       37       41       45 </v>
   <v type="int" >       24       37       37       40       45 </v>
   <v type="int" >       48       37       39       40       45 </v>
   <v type="int" >       48       38       42       43       46 </v>
   <v type="int" >       48       38       39       43       46 </v>
   <v type="int" >       48       38       38       39       46 </v>
   <v type="int" >       48       38       42       45       46 </v>
   <v type="int" >       48       38       39       45       46 </v>
   <v type="int" >       24       39       39       43       45 </v>
   <v type="int" >       24       39       39       40       45 </v>
   <v type="int" >       48       39       43       45       46 </v>
   <v type="int" >       48        9       10       13       33 </v>
   <v type="int" >       48        9       13       14       33 </v>
   <v type="int" >       48       24       25       29       41 </v>
   <v type="int" >       48       24       25       37       41 </v>
   <v type="int" >       48       18       24       25       37 </v>
   <v type="int" >       48       29       41       42       44 </v>
   <v type="int" >       24       41       42       42       44 </v>
   <v type="int" >       24       41       42       42       45 </v>
   <v type="int" >       48       25       29       41       42 </v>
   <v type="int" >       48       25       37       41       42 </v>
   <v type="int" >       48       42       42       44       47 </v>
   <v type="int" >       24       42       42       43       47 </v>
   <v type="int" >       48       42       43       46       47 </v>
   <v type="int" >       24       42       42       45       47 </v>
   <v type="int" >       48       42       45       46       47 </v>
   <v type="int" >       24       43       46       46       47 </v>
   <v type="int" >       24       43       45       46       46 </v>
   <v type="int" >       48       10       11       12       34 </v>
   <v type="int" >       48       10       12       13       34 </v>
   <v type="int" >       48       10       13       33       34 </v>
   <v type="int" >       24       29       29       30       44 </v>
   <v type="int" >       48       29       30       42       44 </v>
   <v type="int" >       48       25       29       30       42 </v>
   <v type="int" >       24       30       42       42       44 </v>
   <v type="int" >       48       11       11       12       35 </v>
   <v type="int" >       48       11       12       34       35 </v>
   <v type="int" >       24        2        2        7       15 </v>
   <v type="int" >       48        3        4        9       14 </v>
   <v type="int" >       48        4        9       13       14 </v>
   <v type="int" >       24       21       21       22       40 </v>
   <v type="int" >       48       21       27       39       40 </v>
   <v type="int" >       48       20       21       27       39 </v>
   <v type="int" >       24       21       21       27       40 </v>
   <v type="int" >       48       20       26       38       39 </v>
   <v type="int" >       48       19       20       26       38 </v>
   <v type="int" >       48       20       26       27       39 </v>
   <v type="int" >       48       19       25       37       38 </v>
   <v type="int" >       48       18       19       25       37 </v>
   <v type="int" >       48       19       25       26       38 </v>
   <v type="int" >       24       17       17       23       36 </v>
   <v type="int" >       24       16       17       17       23 </v>
   <v type="int" >       48       17       23       24       36 </v>
   <v type="int" >       48        4        9       10       13 </v>
   <v type="int" >       24       27       39       39       40 </v>
   <v type="int" >       48       26       38       39       43 </v>
   <v type="int" >       24       27       39       39       43 </v>
   <v type="int" >       48       26       27       39       43 </v>
   <v type="int" >       48       25       37       38       42 </v>
   <v type="int" >       48       26       38       42       43 </v>
   <v type="int" >       48       25       26       38       42 </v>
   <v type="int" >       24       24       24       36       41 </v>
   <v type="int" >       24       23       24       24       36 </v>
   <v type="int" >       24       45       46       46       47 </v>
   <v type="int" >       24       46       46       47       47 </v>
   <v type="int" >       48       25       26       30       42 </v>
   <v type="int" >       24       30       42       42       43 </v>
   <v type="int" >       48       26       30       42       43 </v>
   <v type="int" >       24       26       26       30       43 </v>
   <v type="int" >       48        4        5       10       13 </v>
   <v type="int" >       48        5       10       12       13 </v>
   <v type="int" >       24       26       26       27       43 </v>
   <v type="int" >       24       24       24       28       41 </v>
   <v type="int" >       24       23       24       24       28 </v>
   <v type="int" >       48       24       28       29       41 </v>
   <v type="int" >       48        5       10       11       12 </v>
   <v type="int" >       24       29       29       41       44 </v>
   <v type="int" >       24       28       29       29       41 </v>
   <v type="int" >       48        5        6       11       12 </v>
   <v type="int" >       48        6       11       11       12 </v>
   <v type="int" >       48       29       29       31       44 </v>
   <v type="int" >       24       28       29       29       31 </v>
   <v type="int" >       24        1        2        2        7 </v>
  </varray>
  <i name="volumeweight">      0.00016667 </i>
 </kpoints>
 <parameters>
  <separator name="general" >
   <i type="string" name="SYSTEM">unknown system</i>
   <i type="logical" name="LCOMPAT"> F  </i>
  </separator>
  <separator name="electronic" >
   <i type="string" name="PREC">accura</i>
   <i name="ENMAX">    520.00000000</i>
   <i name="ENAUG">    322.06900000</i>
   <i name="EDIFF">      0.00010000</i>
   <i type="int" name="IALGO">    68</i>
   <i type="int" name="IWAVPR">    10</i>
   <i type="int" name="NBANDS">    64</i>
   <i type="int" name="NBANDSLOW">    -1</i>
   <i type="int" name="NBANDSHIGH">    -1</i>
   <i name="NELECT">      8.00000000</i>
   <i type="int" name="TURBO">     0</i>
   <i type="int" name="IRESTART">     0</i>
   <i type="int" name="NREBOOT">     0</i>
   <i type="int" name="NMIN">     0</i>
   <i name="EREF">      0.00000000</i>
   <separator name="electronic smearing" >
    <i type="int" name="ISMEAR">    -5</i>
    <i name="SIGMA">      0.05000000</i>
    <i name="KSPACING">      0.50000000</i>
    <i type="logical" name="KGAMMA"> T  </i>
    <i type="logical" name="KBLOWUP"> T  </i>
   </separator>
   <separator name="electronic projectors" >
    <i type="logical" name="LREAL"> F  </i>
    <v name="ROPT">      0.00000000</v>
    <i type="int" name="LMAXPAW">  -100</i>
    <i type="int" name="LMAXMIX">     2</i>
    <i type="logical" name="NLSPLINE"> F  </i>
   </separator>
   <separator name="electronic startup" >
    <i type="int" name="ISTART">     0</i>
    <i type="int" name="ICHARG">    11</i>
    <i type="int" name="INIWAV">     1</i>
   </separator>
   <separator name="electronic spin" >
    <i type="int" name="ISPIN">     1</i>
    <i type="logical" name="LNONCOLLINEAR"> F  </i>
    <v name="MAGMOM">      1.00000000      1.00000000</v>
    <i name="NUPDOWN">     -1.00000000</i>
    <i type="logical" name="LSORBIT"> F  </i>
    <v name="SAXIS">      0.00000000      0.00000000      1.00000000</v>
    <i type="logical" name="LSPIRAL"> F  </i>
    <v name="QSPIRAL">      0.00000000      0.00000000      0.00000000</v>
    <i type="logical" name="LZEROZ"> F  </i>
   </separator>
   <separator name="electronic exchange-correlation" >
    <i type="logical" name="LASPH"> T  </i>
    <i type="logical" name="LMETAGGA"> F  </i>
   </separator>
   <separator name="electronic convergence" >
    <i type="int" name="NELM">    60</i>
    <i type="int" name="NELMDL">    -5</i>
    <i type="int" name="NELMIN">     5</i>
    <i name="ENINI">    520.00000000</i>
    <separator name="electronic convergence detail" >
     <i type="logical" name="LDIAG"> T  </i>
     <i type="logical" name="LSUBROT"> F  </i>
     <i name="WEIMIN">      0.00000000</i>
     <i name="EBREAK">      0.00000039</i>
     <i name="DEPER">      0.30000000</i>
     <i type="int" name="NRMM">     4</i>
     <i name="TIME">      0.40000000</i>
    </separator>
   </separator>
   <separator name="electronic mixer" >
    <i name="AMIX">      0.40000000</i>
    <i name="BMIX">      1.00000000</i>
    <i name="AMIN">      0.10000000</i>
    <i name="AMIX_MAG">      1.60000000</i>
    <i name="BMIX_MAG">      1.00000000</i>
    <separator name="electronic mixer details" >
     <i type="int" name="IMIX">     4</i>
     <i type="logical" name="MIXFIRST"> F  </i>
     <i type="int" name="MAXMIX">   -45</i>
     <i name="WC">    100.00000000</i>
     <i type="int" name="INIMIX">     1</i>
     <i type="int" name="MIXPRE">     1</i>
     <i type="int" name="MREMOVE">     5</i>
    </separator>
   </separator>
   <separator name="electronic dipolcorrection" >
    <i type="logical" name="LDIPOL"> F  </i>
    <i type="logical" name="LMONO"> F  </i>
    <i type="int" name="IDIPOL">     0</i>
    <i name="EPSILON">      1.00000000</i>
    <v name="DIPOL">   -100.00000000   -100.00000000   -100.00000000</v>
    <i name="EFIELD">      0.00000000</i>
   </separator>
  </separator>
  <separator name="grids" >
   <i type="int" name="NGX">    30</i>
   <i type="int" name="NGY">    30</i>
   <i type="int" name="NGZ">    30</i>
   <i type="int" name="NGXF">    60</i>
   <i type="int" name="NGYF">    60</i>
   <i type="int" name="NGZF">    60</i>
   <i type="logical" name="ADDGRID"> F  </i>
  </separator>
  <separator name="ionic" >
   <i type="int" name="NSW">     0</i>
   <i type="int" name="IBRION">    -1</i>
   <i type="int" name="MDALGO">     0</i>
   <i type="int" name="ISIF">     2</i>
   <i name="PSTRESS">      0.00000000</i>
   <i name="EDIFFG">      0.00100000</i>
   <i type="int" name="NFREE">     0</i>
   <i name="POTIM">      0.50000000</i>
   <i name="SMASS">     -3.00000000</i>
   <i name="SCALEE">      1.00000000</i>
  </separator>
  <separator name="ionic md" >
   <i name="TEBEG">      0.00010000</i>
   <i name="TEEND">      0.00010000</i>
   <i type="int" name="NBLOCK">     1</i>
   <i type="int" name="KBLOCK">     1</i>
   <i type="int" name="NPACO">   256</i>
   <i name="APACO">     10.00000000</i>
  </separator>
  <separator name="symmetry" >
   <i type="int" name="ISYM">     2</i>
   <i name="SYMPREC">      0.00001000</i>
  </separator>
  <separator name="dos" >
   <i type="int" name="LORBIT">    11</i>
   <v name="RWIGS">     -1.00000000</v>
   <i type="int" name="NEDOS">  2001</i>
   <i name="EMIN">     10.00000000</i>
   <i name="EMAX">    -10.00000000</i>
   <i name="EFERMI">      0.00000000</i>
  </separator>
  <separator name="writing" >
   <i type="int" name="NWRITE">     2</i>
   <i type="logical" name="LWAVE"> F  </i>
   <i type="logical" name="LDOWNSAMPLE"> F  </i>
   <i type="logical" name="LCHARG"> F  </i>
   <i type="logical" name="LPARD"> F  </i>
   <i type="logical" name="LVTOT"> F  </i>
   <i type="logical" name="LVHAR"> F  </i>
   <i type="logical" name="LELF"> F  </i>
   <i type="logical" name="LOPTICS"> F  </i>
   <v name="STM">      0.00000000      0.00000000      0.00000000      0.00000000      0.00000000      0.00000000      0.00000000</v>
  </separator>
  <separator name="performance" >
   <i type="int" name="NPAR">    32</i>
   <i type="int" name="NSIM">     4</i>
   <i type="int" name="NBLK">    -1</i>
   <i type="logical" name="LPLANE"> T  </i>
   <i type="logical" name="LSCALAPACK"> T  </i>
   <i type="logical" name="LSCAAWARE"> T  </i>
   <i type="logical" name="LSCALU"> F  </i>
   <i type="logical" name="LASYNC"> F  </i>
   <i type="logical" name="LORBITALREAL"> F  </i>
  </separator>
  <separator name="miscellaneous" >
   <i type="int" name="IDIOT">     3</i>
   <i type="int" name="PHON_NSTRUCT">    -1</i>
   <i type="logical" name="LMUSIC"> F  </i>
   <v name="POMASS">     28.08500000</v>
   <v name="DARWINR">      0.00000000</v>
   <v name="DARWINV">      1.00000000</v>
   <i type="logical" name="LCORR"> T  </i>
  </separator>
  <i type="logical" name="GGA_COMPAT"> T  </i>
  <i type="logical" name="LBERRY"> F  </i>
  <i type="int" name="ICORELEVEL">     0</i>
  <i type="logical" name="LDAU"> F  </i>
  <i type="int" name="I_CONSTRAINED_M">     0</i>
  <separator name="electronic exchange-correlation" >
   <i type="string" name="GGA">--</i>
   <i type="int" name="VOSKOWN">     0</i>
   <i type="logical" name="LHFCALC"> F  </i>
   <i type="string" name="PRECFOCK"></i>
   <i type="logical" name="LSYMGRAD"> F  </i>
   <i type="logical" name="LHFONE"> F  </i>
   <i type="logical" name="LRHFCALC"> F  </i>
   <i type="logical" name="LTHOMAS"> F  </i>
   <i type="logical" name="LMODELHF"> F  </i>
   <i type="logical" name="LFOCKACE"> F  </i>
   <i name="ENCUT4O">     -1.00000000</i>
   <i type="int" name="EXXOEP">     0</i>
   <i type="int" name="FOURORBIT">     0</i>
   <i name="AEXX">      0.00000000</i>
   <i name="HFALPHA">      0.00000000</i>
   <i name="MCALPHA">      0.00000000</i>
   <i name="ALDAX">      1.00000000</i>
   <i name="AGGAX">      1.00000000</i>
   <i name="ALDAC">      1.00000000</i>
   <i name="AGGAC">      1.00000000</i>
   <i type="int" name="NKREDX">     1</i>
   <i type="int" name="NKREDY">     1</i>
   <i type="int" name="NKREDZ">     1</i>
   <i type="logical" name="SHIFTRED"> F  </i>
   <i type="logical" name="ODDONLY"> F  </i>
   <i type="logical" name="EVENONLY"> F  </i>
   <i type="int" name="LMAXFOCK">     0</i>
   <i type="int" name="NMAXFOCKAE">     0</i>
   <i type="logical" name="LFOCKAEDFT"> F  </i>
   <i name="HFSCREEN">      0.00000000</i>
   <i name="HFSCREENC">      0.00000000</i>
   <i type="int" name="NBANDSGWLOW">     0</i>
  </separator>
  <separator name="vdW DFT" >
   <i type="logical" name="LUSE_VDW"> F  </i>
   <i name="Zab_VDW">     -0.84910000</i>
   <i name="PARAM1">      0.12340000</i>
   <i name="PARAM2">      1.00000000</i>
   <i name="PARAM3">      0.00000000</i>
  </separator>
  <separator name="model GW" >
   <i type="int" name="MODEL_GW">     0</i>
   <i name="MODEL_EPS0">     12.26990977</i>
   <i name="MODEL_ALPHA">      1.00000000</i>
  </separator>
  <separator name="linear response parameters" >
   <i type="logical" name="LEPSILON"> F  </i>
   <i type="logical" name="LRPA"> F  </i>
   <i type="logical" name="LNABLA"> F  </i>
   <i type="logical" name="LVEL"> F  </i>
   <i name="CSHIFT">      0.10000000</i>
   <i name="OMEGAMAX">     -1.00000000</i>
   <i name="DEG_THRESHOLD">      0.00200000</i>
   <i name="RTIME">     -0.10000000</i>
   <i name="WPLASMAI">      0.00000000</i>
   <v name="DFIELD">      0.00000000      0.00000000      0.00000000</v>
   <v name="WPLASMA">      0.00000000      0.00000000      0.00000000      0.00000000      0.00000000      0.00000000      0.00000000      0.00000000      0.00000000</v>
  </separator>
  <separator name="orbital magnetization" >
   <i type="logical" name="NUCIND"> F  </i>
   <v name="MAGPOS">      0.00000000      0.00000000      0.00000000</v>
   <i type="logical" name="LNICSALL"> T  </i>
   <i type="logical" name="ORBITALMAG"> F  </i>
   <i type="logical" name="LMAGBLOCH"> F  </i>
   <i type="logical" name="LCHIMAG"> F  </i>
   <i type="logical" name="LGAUGE"> T  </i>
   <i type="int" name="MAGATOM">     0</i>
   <v name="MAGDIPOL">      0.00000000      0.00000000      0.00000000</v>
   <v name="AVECCONST">      0.00000000      0.00000000      0.00000000</v>
  </separator>
  <separator name="response functions" >
   <i type="logical" name="LFINITE_TEMPERATURE"> F  </i>
   <i type="logical" name="LADDER"> F  </i>
   <i type="logical" name="LRPAFORCE"> F  </i>
   <i type="logical" name="LFXC"> F  </i>
   <i type="logical" name="LHARTREE"> T  </i>
   <i type="int" name="IBSE">     0</i>
   <v type="int" name="KPOINT">    -1     0     0     0</v>
   <i type="logical" name="LTCTC"> F  </i>
   <i type="logical" name="LTCTE"> F  </i>
   <i type="logical" name="LTETE"> F  </i>
   <i type="logical" name="LTRIPLET"> F  </i>
   <i type="logical" name="LFXCEPS"> F  </i>
   <i type="logical" name="LFXHEG"> F  </i>
   <i type="int" name="NATURALO">     2</i>
   <i type="logical" name="LHOLEGF"> F  </i>
   <i type="logical" name="L2ORDER"> F  </i>
   <i type="logical" name="LDMP1"> F  </i>
   <i type="logical" name="LMP2LT"> F  </i>
   <i type="logical" name="LSMP2LT"> F  </i>
   <i type="logical" name="LGWLF"> F  </i>
   <i name="ENCUTGW">     -2.00000000</i>
   <i name="ENCUTGWSOFT">     -2.00000000</i>
   <i name="ENCUTLF">     -1.00000000</i>
   <i type="logical" name="LESF_SPLINES"> F  </i>
   <i type="int" name="LMAXMP2">    -1</i>
   <i name="SCISSOR">      0.00000000</i>
   <i type="int" name="NOMEGA">     0</i>
   <i type="int" name="NOMEGAR">     0</i>
   <i type="int" name="NBANDSGW">    -1</i>
   <i type="int" name="NBANDSO">    -1</i>
   <i type="int" name="NBANDSV">    -1</i>
   <i type="int" name="NELMGW">     1</i>
   <i type="int" name="NELMHF">     1</i>
   <i type="int" name="DIM">     3</i>
   <i type="int" name="IESPILON">     4</i>
   <i type="int" name="ANTIRES">     0</i>
   <i name="OMEGAMAX">    -30.00000000</i>
   <i name="OMEGAMIN">    -30.00000000</i>
   <i name="OMEGATL">   -200.00000000</i>
   <i type="int" name="OMEGAGRID">     0</i>
   <i name="CSHIFT">     -0.10000000</i>
   <i type="logical" name="LSELFENERGY"> F  </i>
   <i type="logical" name="LSPECTRAL"> F  </i>
   <i type="logical" name="LSPECTRALGW"> F  </i>
   <i type="logical" name="LSINGLES"> F  </i>
   <i type="logical" name="LFERMIGW"> F  </i>
   <i type="logical" name="ODDONLYGW"> F  </i>
   <i type="logical" name="EVENONLYGW"> F  </i>
   <i type="int" name="NKREDLFX">     1</i>
   <i type="int" name="NKREDLFY">     1</i>
   <i type="int" name="NKREDLFZ">     1</i>
   <i type="int" name="MAXMEM">  2800</i>
   <i type="int" name="TELESCOPE">     0</i>
   <i type="int" name="NTAUPAR">    -1</i>
   <i type="int" name="NOMEGAPAR">    -1</i>
   <i name="DAMP_NEWTON">      0.80000001</i>
   <i name="LAMBDA">      1.00000000</i>
  </separator>
  <separator name="External order field" >
   <i name="OFIELD_KAPPA">      0.00000000</i>
   <v name="OFIELD_K">      0.00000000      0.00000000      0.00000000</v>
   <i name="OFIELD_Q6_NEAR">      0.00000000</i>
   <i name="OFIELD_Q6_FAR">      0.00000000</i>
   <i name="OFIELD_A">      0.00000000</i>
  </separator>
  <separator name="optional k-points parameters" >
   <i type="int" name="KPOINTS_OPT_MODE">     1</i>
   <i type="logical" name="LKPOINTS_OPT"> F  </i>
  </separator>
  <separator name="solvation model" >
   <i type="logical" name="LSOL"> F  </i>
  </separator>
 </parameters>
 <atominfo>
  <atoms>       2 </atoms>
  <types>       1 </types>
  <array name="atoms" >
   <dimension dim="1">ion</dimension>
   <field type="string">element</field>
   <field type="int">atomtype</field>
   <set>
    <rc><c>Si</c><c>   1</c></rc>
    <rc><c>Si</c><c>   1</c></rc>
   </set>
  </array>
  <array name="atomtypes" >
   <dimension dim="1">type</dimension>
   <field type="int">atomspertype</field>
   <field type="string">element</field>
   <field>mass</field>
   <field>valence</field>
   <field type="string">pseudopotential</field>
   <set>
    <rc><c>   2</c><c>Si</c><c>     28.08500000</c><c>      4.00000000</c><c>  PAW_PBE Si 05Jan2001                  </c></rc>
   </set>
  </array>
 </atominfo>
 <structure name="initialpos" >
  <crystal>
   <varray name="basis" >
    <v>       0.00000000       2.73461824       2.73461824 </v>
    <v>       2.73461824       0.00000000       2.73461824 </v>
    <v>       2.73461824       2.73461824       0.00000000 </v>
   </varray>
   <i name="volume">     40.89969924 </i>
   <varray name="rec_basis" >
    <v>      -0.18284088       0.18284088       0.18284088 </v>
    <v>       0.18284088      -0.18284088       0.18284088 </v>
    <v>       0.18284088       0.18284088      -0.18284088 </v>
   </varray>
  </crystal>
  <varray name="positions" >
   <v>       0.25000000       0.25000000       0.25000000 </v>
   <v>       0.00000000       0.00000000       0.00000000 </v>
  </varray>
 </structure>
 <calculation>
  <scstep>
   <time name="dav">    1.49    1.50</time>
   <time name="total">    1.57    1.59</time>
   <energy>
    <i name="alphaZ">      3.29226194 </i>
    <i name="ewald">   -226.92380278 </i>
    <i name="hartreedc">    -15.18631997 </i>
    <i name="XCdc">    -18.05999775 </i>
    <i name="pawpsdc">    833.93575160 </i>
    <i name="pawaedc">   -798.95484789 </i>
    <i name="eentropy">      0.00000000 </i>
    <i name="bandstr">     20.43770189 </i>
    <i name="atom">    206.13270273 </i>
    <i name="e_fr_energy">      4.67344978 </i>
    <i name="e_wo_entrp">      4.67344978 </i>
    <i name="e_0_energy">      4.67344978 </i>
   </energy>
  </scstep>
  <scstep>
   <time name="dav">    2.56    2.57</time>
   <time name="total">    2.58    2.59</time>
   <energy>
    <i name="e_fr_energy">    -10.70681617 </i>
    <i name="e_wo_entrp">    -10.70681617 </i>
    <i name="e_0_energy">    -10.70681617 </i>
   </energy>
  </scstep>
  <scstep>
   <time name="dav">    1.40    1.41</time>
   <time name="total">    1.42    1.42</time>
   <energy>
    <i name="e_fr_energy">    -10.84912086 </i>
    <i name="e_wo_entrp">    -10.84912086 </i>
    <i name="e_0_energy">    -10.84912086 </i>
   </energy>
  </scstep>
  <scstep>
   <time name="dav">    2.29    2.30</time>
   <time name="total">    2.31    2.31</time>
   <energy>
    <i name="e_fr_energy">    -10.84920525 </i>
    <i name="e_wo_entrp">    -10.84920525 </i>
    <i name="e_0_energy">    -10.84920525 </i>
   </energy>
  </scstep>
  <scstep>
   <time name="dav">    1.08    1.08</time>
   <time name="total">    1.11    1.11</time>
   <energy>
    <i name="e_fr_energy">    -10.84920536 </i>
    <i name="e_wo_entrp">    -10.84920536 </i>
    <i name="e_0_energy">    -10.84920536 </i>
   </energy>
  </scstep>
  <scstep>
   <time name="diag">    0.39    0.39</time>
   <time name="diis">    0.15    0.15</time>
   <time name="orth">    0.09    0.10</time>
   <time name="total">    0.65    0.66</time>
   <energy>
    <i name="alphaZ">      3.29226194 </i>
    <i name="ewald">   -226.92380278 </i>
    <i name="hartreedc">    -15.18631997 </i>
    <i name="XCdc">    -18.05999775 </i>
    <i name="pawpsdc">    833.93575160 </i>
    <i name="pawaedc">   -798.95484789 </i>
    <i name="eentropy">      0.00000000 </i>
    <i name="bandstr">      4.91504675 </i>
    <i name="atom">    206.13270273 </i>
    <i name="e_fr_energy">    -10.84920536 </i>
    <i name="e_wo_entrp">    -10.84920536 </i>
    <i name="e_0_energy">    -10.84920536 </i>
   </energy>
  </scstep>
  <structure>
   <crystal>
    <varray name="basis" >
     <v>       0.00000000       2.73461824       2.73461824 </v>
     <v>       2.73461824       0.00000000       2.73461824 </v>
     <v>       2.73461824       2.73461824       0.00000000 </v>
    </varray>
    <i name="volume">     40.89969924 </i>
    <varray name="rec_basis" >
     <v>      -0.18284088       0.18284088       0.18284088 </v>
     <v>       0.18284088      -0.18284088       0.18284088 </v>
     <v>       0.18284088       0.18284088      -0.18284088 </v>
    </varray>
   </crystal>
   <varray name="positions" >
    <v>       0.25000000       0.25000000       0.25000000 </v>
    <v>       0.00000000       0.00000000       0.00000000 </v>
   </varray>
  </structure>
  <varray name="forces" >
   <v>      -0.00000000      -0.00000000      -0.00000000 </v>
   <v>       0.00000000       0.00000000       0.00000000 </v>
  </varray>
  <varray name="stress" >
   <v>      -0.52716683       0.00000000      -0.00000000 </v>
   <v>      -0.00000000      -0.52716683      -0.00000000 </v>
   <v>       0.00000000       0.00000000      -0.52716683 </v>
  </varray>
  <energy>
   <i name="e_fr_energy">    -10.84920536 </i>
   <i name="e_wo_entrp">    -10.84920536 </i>
   <i name="e_0_energy">    -10.84920536 </i>
  </energy>
  <time name="totalsc">   10.08   10.13</time>
  <eigenvalues>
   <array>
    <dimension dim="1">band</dimension>
    <dimension dim="2">kpoint</dimension>
    <dimension dim="3">spin</dimension>
    <field>eigene</field>
    <field>occ</field>
    <set>
     <set comment="spin 1">
      <set comment="kpoint 1">
       <r>   -6.1984    1.0000 </r>
       <r>    5.6147    1.0000 </r>
       <r>    5.6147    1.0000 </r>
       <r>    5.6147    1.0000 </r>
       <r>    8.1711    0.0000 </r>
       <r>    8.1711    0.0000 </r>
       <r>    8.1711    0.0000 </r>
       <r>    8.7452    0.0000 </r>
       <r>   13.3233    0.0000 </r>
       <r>   13.3233    0.0000 </r>
       <r>   13.4884    0.0000 </r>
       <r>   16.7949    0.0000 </r>
       <r>   16.7949    0.0000 </r>
       <r>   16.7949    0.0000 </r>
       <r>   20.8823    0.0000 </r>
       <r>   28.4651    0.0000 </r>
       <r>   28.4651    0.0000 </r>
       <r>   28.4651    0.0000 </r>
       <r>   29.5462    0.0000 </r>
       <r>   29.5462    0.0000 </r>
       <r>   30.9912    0.0000 </r>
       <r>   30.9912    0.0000 </r>
       <r>   30.9912    0.0000 </r>
       <r>   34.5223    0.0000 </r>
       <r>   34.5223    0.0000 </r>
       <r>   34.5223    0.0000 </r>
       <r>   40.1037    0.0000 </r>
       <r>   40.1037    0.0000 </r>
       <r>   40.1037    0.0000 </r>
       <r>   43.4043    0.0000 </r>
       <r>   43.8795    0.0000 </r>
       <r>   43.8795    0.0000 </r>
       <r>   45.7732    0.0000 </r>
       <r>   45.7732    0.0000 </r>
       <r>   47.2654    0.0000 </r>
       <r>   47.2654    0.0000 </r>
       <r>   47.2654    0.0000 </r>
       <r>   49.0150    0.0000 </r>
       <r>   49.0150    0.0000 </r>
       <r>   49.0150    0.0000 </r>
       <r>   49.4723    0.0000 </r>
       <r>   50.0812    0.0000 </r>
       <r>   50.0812    0.0000 </r>
       <r>   50.0812    0.0000 </r>
       <r>   50.0839    0.0000 </r>
       <r>   50.0839    0.0000 </r>
       <r>   50.0839    0.0000 </r>
       <r>   51.5043    0.0000 </r>
       <r>   51.5043    0.0000 </r>
       <r>   51.5043    0.0000 </r>
       <r>   55.3516    0.0000 </r>
       <r>   56.5236    0.0000 </r>
       <r>   56.5236    0.0000 </r>
       <r>   56.5236    0.0000 </r>
       <r>   56.8070    0.0000 </r>
       <r>   56.8070    0.0000 </r>
       <r>   56.8070    0.0000 </r>
       <r>   61.6095    0.0000 </r>
       <r>   62.4658    0.0000 </r>
       <r>   71.2504    0.0000 </r>
       <r>   71.2504    0.0000 </r>
       <r>   74.2612    0.0000 </r>
       <r>   74.2612    0.0000 </r>
       <r>   74.2613    0.0000 </r>
      </set>
      <set comment="kpoint 2">
       <r>   -6.0699    1.0000 </r>
       <r>    4.4726    1.0000 </r>
       <r>    5.4209    1.0000 </r>
       <r>    5.4209    1.0000 </r>
       <r>    8.1363    0.0000 </r>
       <r>    8.4568    0.0000 </r>
       <r>    8.4568    0.0000 </r>
       <r>    9.7160    0.0000 </r>
       <r>   12.9735    0.0000 </r>
       <r>   12.9735    0.0000 </r>
       <r>   14.0181    0.0000 </r>
       <r>   16.3755    0.0000 </r>
       <r>   17.5699    0.0000 </r>
       <r>   17.5699    0.0000 </r>
       <r>   21.7077    0.0000 </r>
       <r>   27.0931    0.0000 </r>
       <r>   27.0931    0.0000 </r>
       <r>   27.2159    0.0000 </r>
       <r>   29.2022    0.0000 </r>
       <r>   29.2022    0.0000 </r>
       <r>   31.4383    0.0000 </r>
       <r>   31.4383    0.0000 </r>
       <r>   32.0512    0.0000 </r>
       <r>   34.6393    0.0000 </r>
       <r>   36.0265    0.0000 </r>
       <r>   36.0265    0.0000 </r>
       <r>   38.4572    0.0000 </r>
       <r>   39.7580    0.0000 </r>
       <r>   39.7580    0.0000 </r>
       <r>   42.6382    0.0000 </r>
       <r>   42.6382    0.0000 </r>
       <r>   43.8379    0.0000 </r>
       <r>   44.3027    0.0000 </r>
       <r>   44.3027    0.0000 </r>
       <r>   47.0984    0.0000 </r>
       <r>   47.0984    0.0000 </r>
       <r>   47.2727    0.0000 </r>
       <r>   47.9536    0.0000 </r>
       <r>   48.3060    0.0000 </r>
       <r>   48.9593    0.0000 </r>
       <r>   48.9593    0.0000 </r>
       <r>   49.6409    0.0000 </r>
       <r>   49.6409    0.0000 </r>
       <r>   49.6464    0.0000 </r>
       <r>   51.2948    0.0000 </r>
       <r>   51.7004    0.0000 </r>
       <r>   51.7004    0.0000 </r>
       <r>   52.3574    0.0000 </r>
       <r>   53.9635    0.0000 </r>
       <r>   54.2909    0.0000 </r>
       <r>   54.2909    0.0000 </r>
       <r>   55.5709    0.0000 </r>
       <r>   55.5709    0.0000 </r>
       <r>   56.1027    0.0000 </r>
       <r>   58.7117    0.0000 </r>
       <r>   58.7117    0.0000 </r>
       <r>   59.7365    0.0000 </r>
       <r>   62.8625    0.0000 </r>
       <r>   63.7428    0.0000 </r>
       <r>   69.0501    0.0000 </r>
       <r>   69.0501    0.0000 </r>
       <r>   71.7151    0.0000 </r>
       <r>   73.7515    0.0000 </r>
       <r>   73.7519    0.0000 </r>
      </set>
      <set comment="kpoint 3">
       <r>   -5.6906    1.0000 </r>
       <r>    2.6329    1.0000 </r>
       <r>    5.0472    1.0000 </r>
       <r>    5.0472    1.0000 </r>
       <r>    7.7658    0.0000 </r>
       <r>    8.9586    0.0000 </r>
       <r>    8.9586    0.0000 </r>
       <r>   11.4905    0.0000 </r>
       <r>   12.6627    0.0000 </r>
       <r>   12.6627    0.0000 </r>
       <r>   14.6873    0.0000 </r>
       <r>   16.4690    0.0000 </r>
       <r>   19.2485    0.0000 </r>
       <r>   19.2485    0.0000 </r>
       <r>   23.3178    0.0000 </r>
       <r>   24.4723    0.0000 </r>
       <r>   24.4723    0.0000 </r>
       <r>   25.4305    0.0000 </r>
       <r>   29.3018    0.0000 </r>
       <r>   29.3018    0.0000 </r>
       <r>   31.7545    0.0000 </r>
       <r>   31.7545    0.0000 </r>
       <r>   33.4085    0.0000 </r>
       <r>   34.9770    0.0000 </r>
       <r>   35.4814    0.0000 </r>
       <r>   38.0393    0.0000 </r>
       <r>   38.0393    0.0000 </r>
       <r>   39.0505    0.0000 </r>
       <r>   39.0505    0.0000 </r>
       <r>   39.9739    0.0000 </r>
       <r>   39.9739    0.0000 </r>
       <r>   43.0057    0.0000 </r>
       <r>   43.0057    0.0000 </r>
       <r>   44.0920    0.0000 </r>
       <r>   45.2373    0.0000 </r>
       <r>   45.5968    0.0000 </r>
       <r>   46.5929    0.0000 </r>
       <r>   46.5929    0.0000 </r>
       <r>   48.7642    0.0000 </r>
       <r>   49.0313    0.0000 </r>
       <r>   49.0313    0.0000 </r>
       <r>   49.1307    0.0000 </r>
       <r>   49.7051    0.0000 </r>
       <r>   51.1210    0.0000 </r>
       <r>   51.1210    0.0000 </r>
       <r>   54.3201    0.0000 </r>
       <r>   54.3201    0.0000 </r>
       <r>   54.3525    0.0000 </r>
       <r>   54.5244    0.0000 </r>
       <r>   54.5244    0.0000 </r>
       <r>   56.8887    0.0000 </r>
       <r>   57.3198    0.0000 </r>
       <r>   59.5790    0.0000 </r>
       <r>   59.5790    0.0000 </r>
       <r>   61.2122    0.0000 </r>
       <r>   61.2122    0.0000 </r>
       <r>   61.5590    0.0000 </r>
       <r>   64.5202    0.0000 </r>
       <r>   66.0687    0.0000 </r>
       <r>   66.0687    0.0000 </r>
       <r>   67.6002    0.0000 </r>
       <r>   68.9533    0.0000 </r>
       <r>   69.5619    0.0000 </r>
       <r>   69.5619    0.0000 </r>
      </set>
      <set comment="kpoint 4">
       <r>   -5.0873    1.0000 </r>
       <r>    0.8752    1.0000 </r>
       <r>    4.7172    1.0000 </r>
       <r>    4.7172    1.0000 </r>
       <r>    7.4020    0.0000 </r>
       <r>    9.1392    0.0000 </r>
       <r>    9.1392    0.0000 </r>
       <r>   13.1123    0.0000 </r>
       <r>   13.1882    0.0000 </r>
       <r>   13.1882    0.0000 </r>
       <r>   14.4342    0.0000 </r>
       <r>   18.3802    0.0000 </r>
       <r>   20.4806    0.0000 </r>
       <r>   20.4806    0.0000 </r>
       <r>   22.6545    0.0000 </r>
       <r>   22.7626    0.0000 </r>
       <r>   22.7626    0.0000 </r>
       <r>   26.4861    0.0000 </r>
       <r>   29.4218    0.0000 </r>
       <r>   29.4218    0.0000 </r>
       <r>   31.6580    0.0000 </r>
       <r>   31.9972    0.0000 </r>
       <r>   31.9972    0.0000 </r>
       <r>   34.9759    0.0000 </r>
       <r>   35.4823    0.0000 </r>
       <r>   35.6220    0.0000 </r>
       <r>   35.6220    0.0000 </r>
       <r>   38.3032    0.0000 </r>
       <r>   38.3032    0.0000 </r>
       <r>   39.4175    0.0000 </r>
       <r>   39.4175    0.0000 </r>
       <r>   41.9304    0.0000 </r>
       <r>   43.5135    0.0000 </r>
       <r>   43.6290    0.0000 </r>
       <r>   44.5767    0.0000 </r>
       <r>   44.5767    0.0000 </r>
       <r>   46.2984    0.0000 </r>
       <r>   46.2984    0.0000 </r>
       <r>   48.3074    0.0000 </r>
       <r>   48.9217    0.0000 </r>
       <r>   48.9217    0.0000 </r>
       <r>   49.1470    0.0000 </r>
       <r>   50.3500    0.0000 </r>
       <r>   52.9881    0.0000 </r>
       <r>   52.9881    0.0000 </r>
       <r>   55.1247    0.0000 </r>
       <r>   55.1247    0.0000 </r>
       <r>   56.8886    0.0000 </r>
       <r>   57.4553    0.0000 </r>
       <r>   57.4553    0.0000 </r>
       <r>   58.5263    0.0000 </r>
       <r>   61.0067    0.0000 </r>
       <r>   62.6924    0.0000 </r>
       <r>   62.6924    0.0000 </r>
       <r>   63.4137    0.0000 </r>
       <r>   63.9518    0.0000 </r>
       <r>   63.9518    0.0000 </r>
       <r>   64.9985    0.0000 </r>
       <r>   64.9985    0.0000 </r>
       <r>   65.1665    0.0000 </r>
       <r>   65.8460    0.0000 </r>
       <r>   65.8460    0.0000 </r>
       <r>   66.1163    0.0000 </r>
       <r>   69.8214    0.0000 </r>
      </set>
      <set comment="kpoint 5">
       <r>   -4.3577    1.0000 </r>
       <r>   -0.5728    1.0000 </r>
       <r>    4.5074    1.0000 </r>
       <r>    4.5074    1.0000 </r>
       <r>    7.1621    0.0000 </r>
       <r>    9.0348    0.0000 </r>
       <r>    9.0348    0.0000 </r>
       <r>   13.4171    0.0000 </r>
       <r>   14.5501    0.0000 </r>
       <r>   14.5501    0.0000 </r>
       <r>   15.5241    0.0000 </r>
       <r>   18.6835    0.0000 </r>
       <r>   18.6835    0.0000 </r>
       <r>   19.3838    0.0000 </r>
       <r>   22.3834    0.0000 </r>
       <r>   24.5850    0.0000 </r>
       <r>   24.5850    0.0000 </r>
       <r>   28.2563    0.0000 </r>
       <r>   28.9974    0.0000 </r>
       <r>   28.9974    0.0000 </r>
       <r>   29.1570    0.0000 </r>
       <r>   32.0334    0.0000 </r>
       <r>   32.0334    0.0000 </r>
       <r>   33.1980    0.0000 </r>
       <r>   33.1980    0.0000 </r>
       <r>   34.9244    0.0000 </r>
       <r>   36.0123    0.0000 </r>
       <r>   37.7444    0.0000 </r>
       <r>   37.7444    0.0000 </r>
       <r>   38.5796    0.0000 </r>
       <r>   38.5796    0.0000 </r>
       <r>   39.5237    0.0000 </r>
       <r>   42.2177    0.0000 </r>
       <r>   42.4644    0.0000 </r>
       <r>   45.9995    0.0000 </r>
       <r>   45.9995    0.0000 </r>
       <r>   47.3123    0.0000 </r>
       <r>   47.3123    0.0000 </r>
       <r>   48.0206    0.0000 </r>
       <r>   48.9329    0.0000 </r>
       <r>   49.5510    0.0000 </r>
       <r>   49.5510    0.0000 </r>
       <r>   52.5222    0.0000 </r>
       <r>   54.0333    0.0000 </r>
       <r>   54.0333    0.0000 </r>
       <r>   56.7509    0.0000 </r>
       <r>   56.7509    0.0000 </r>
       <r>   58.2030    0.0000 </r>
       <r>   59.0801    0.0000 </r>
       <r>   59.9003    0.0000 </r>
       <r>   59.9003    0.0000 </r>
       <r>   61.0158    0.0000 </r>
       <r>   61.0158    0.0000 </r>
       <r>   62.1218    0.0000 </r>
       <r>   62.1218    0.0000 </r>
       <r>   63.9044    0.0000 </r>
       <r>   64.9887    0.0000 </r>
       <r>   65.8924    0.0000 </r>
       <r>   65.9171    0.0000 </r>
       <r>   65.9171    0.0000 </r>
       <r>   66.2227    0.0000 </r>
       <r>   68.1287    0.0000 </r>
       <r>   68.1287    0.0000 </r>
       <r>   69.4933    0.0000 </r>
      </set>
      <set comment="kpoint 6">
       <r>   -3.9202    1.0000 </r>
       <r>   -1.2531    1.0000 </r>
       <r>    4.4365    1.0000 </r>
       <r>    4.4365    1.0000 </r>
       <r>    7.0798    0.0000 </r>
       <r>    8.9638    0.0000 </r>
       <r>    8.9638    0.0000 </r>
       <r>   13.3141    0.0000 </r>
       <r>   16.1088    0.0000 </r>
       <r>   16.1088    0.0000 </r>
       <r>   16.7924    0.0000 </r>
       <r>   16.8325    0.0000 </r>
       <r>   16.8325    0.0000 </r>
       <r>   18.3509    0.0000 </r>
       <r>   24.7502    0.0000 </r>
       <r>   25.3595    0.0000 </r>
       <r>   27.0585    0.0000 </r>
       <r>   27.0585    0.0000 </r>
       <r>   27.1788    0.0000 </r>
       <r>   27.1788    0.0000 </r>
       <r>   31.0438    0.0000 </r>
       <r>   31.7626    0.0000 </r>
       <r>   31.7626    0.0000 </r>
       <r>   32.6828    0.0000 </r>
       <r>   32.6828    0.0000 </r>
       <r>   33.6612    0.0000 </r>
       <r>   36.2650    0.0000 </r>
       <r>   37.6265    0.0000 </r>
       <r>   37.6265    0.0000 </r>
       <r>   38.1371    0.0000 </r>
       <r>   38.1371    0.0000 </r>
       <r>   39.0647    0.0000 </r>
       <r>   41.6707    0.0000 </r>
       <r>   41.9167    0.0000 </r>
       <r>   45.9953    0.0000 </r>
       <r>   45.9953    0.0000 </r>
       <r>   47.7247    0.0000 </r>
       <r>   47.7247    0.0000 </r>
       <r>   47.9483    0.0000 </r>
       <r>   48.8412    0.0000 </r>
       <r>   51.6144    0.0000 </r>
       <r>   51.6144    0.0000 </r>
       <r>   53.4553    0.0000 </r>
       <r>   53.4553    0.0000 </r>
       <r>   54.1438    0.0000 </r>
       <r>   57.4487    0.0000 </r>
       <r>   57.6713    0.0000 </r>
       <r>   57.6713    0.0000 </r>
       <r>   58.9737    0.0000 </r>
       <r>   58.9737    0.0000 </r>
       <r>   59.1489    0.0000 </r>
       <r>   60.8676    0.0000 </r>
       <r>   60.8676    0.0000 </r>
       <r>   63.2933    0.0000 </r>
       <r>   63.2933    0.0000 </r>
       <r>   64.0552    0.0000 </r>
       <r>   64.5114    0.0000 </r>
       <r>   64.5114    0.0000 </r>
       <r>   66.1609    0.0000 </r>
       <r>   67.2846    0.0000 </r>
       <r>   67.2847    0.0000 </r>
       <r>   67.6704    0.0000 </r>
       <r>   68.9123    0.0000 </r>
       <r>   69.6224    0.0000 </r>
      </set>
      <set comment="kpoint 7">
       <r>   -6.0268    1.0000 </r>
       <r>    4.6588    1.0000 </r>
       <r>    5.0533    1.0000 </r>
       <r>    5.0533    1.0000 </r>
       <r>    7.7992    0.0000 </r>
       <r>    8.9433    0.0000 </r>
       <r>    8.9433    0.0000 </r>
       <r>    9.6002    0.0000 </r>
       <r>   12.3507    0.0000 </r>
       <r>   13.5141    0.0000 </r>
       <r>   14.2000    0.0000 </r>
       <r>   17.0944    0.0000 </r>
       <r>   17.0944    0.0000 </r>
       <r>   17.4829    0.0000 </r>
       <r>   22.0701    0.0000 </r>
       <r>   26.6379    0.0000 </r>
       <r>   26.6379    0.0000 </r>
       <r>   27.8756    0.0000 </r>
       <r>   28.4171    0.0000 </r>
       <r>   28.6909    0.0000 </r>
       <r>   31.6190    0.0000 </r>
       <r>   31.9114    0.0000 </r>
       <r>   31.9114    0.0000 </r>
       <r>   35.8087    0.0000 </r>
       <r>   35.8087    0.0000 </r>
       <r>   36.2802    0.0000 </r>
       <r>   38.9443    0.0000 </r>
       <r>   38.9443    0.0000 </r>
       <r>   39.0185    0.0000 </r>
       <r>   41.5688    0.0000 </r>
       <r>   42.9874    0.0000 </r>
       <r>   43.4774    0.0000 </r>
       <r>   44.5020    0.0000 </r>
       <r>   45.5937    0.0000 </r>
       <r>   46.4773    0.0000 </r>
       <r>   46.4773    0.0000 </r>
       <r>   47.0239    0.0000 </r>
       <r>   47.4906    0.0000 </r>
       <r>   47.4906    0.0000 </r>
       <r>   48.5416    0.0000 </r>
       <r>   48.5416    0.0000 </r>
       <r>   49.4624    0.0000 </r>
       <r>   50.8585    0.0000 </r>
       <r>   51.4990    0.0000 </r>
       <r>   51.8482    0.0000 </r>
       <r>   51.8482    0.0000 </r>
       <r>   52.3559    0.0000 </r>
       <r>   52.6947    0.0000 </r>
       <r>   53.7284    0.0000 </r>
       <r>   53.7284    0.0000 </r>
       <r>   53.7599    0.0000 </r>
       <r>   55.2831    0.0000 </r>
       <r>   55.2831    0.0000 </r>
       <r>   56.1083    0.0000 </r>
       <r>   58.9397    0.0000 </r>
       <r>   60.6306    0.0000 </r>
       <r>   60.6306    0.0000 </r>
       <r>   63.2359    0.0000 </r>
       <r>   63.5419    0.0000 </r>
       <r>   66.3580    0.0000 </r>
       <r>   71.3643    0.0000 </r>
       <r>   72.7422    0.0000 </r>
       <r>   72.7422    0.0000 </r>
       <r>   73.9542    0.0000 </r>
      </set>
      <set comment="kpoint 8">
       <r>   -5.7298    1.0000 </r>
       <r>    3.1732    1.0000 </r>
       <r>    4.6269    1.0000 </r>
       <r>    4.7847    1.0000 </r>
       <r>    7.8533    0.0000 </r>
       <r>    8.9517    0.0000 </r>
       <r>    9.5869    0.0000 </r>
       <r>   10.5258    0.0000 </r>
       <r>   12.3058    0.0000 </r>
       <r>   13.5038    0.0000 </r>
       <r>   15.0956    0.0000 </r>
       <r>   16.7049    0.0000 </r>
       <r>   18.0788    0.0000 </r>
       <r>   19.0713    0.0000 </r>
       <r>   23.5336    0.0000 </r>
       <r>   24.3314    0.0000 </r>
       <r>   24.7637    0.0000 </r>
       <r>   27.2967    0.0000 </r>
       <r>   27.5386    0.0000 </r>
       <r>   28.4884    0.0000 </r>
       <r>   31.5810    0.0000 </r>
       <r>   32.2702    0.0000 </r>
       <r>   33.2909    0.0000 </r>
       <r>   36.1941    0.0000 </r>
       <r>   36.2318    0.0000 </r>
       <r>   37.6268    0.0000 </r>
       <r>   37.7109    0.0000 </r>
       <r>   38.6404    0.0000 </r>
       <r>   38.6897    0.0000 </r>
       <r>   39.5395    0.0000 </r>
       <r>   41.4319    0.0000 </r>
       <r>   41.7562    0.0000 </r>
       <r>   44.0213    0.0000 </r>
       <r>   44.5693    0.0000 </r>
       <r>   45.3205    0.0000 </r>
       <r>   45.5182    0.0000 </r>
       <r>   46.6547    0.0000 </r>
       <r>   47.3087    0.0000 </r>
       <r>   48.0905    0.0000 </r>
       <r>   48.5238    0.0000 </r>
       <r>   49.6387    0.0000 </r>
       <r>   49.8864    0.0000 </r>
       <r>   49.8867    0.0000 </r>
       <r>   50.6420    0.0000 </r>
       <r>   52.3733    0.0000 </r>
       <r>   52.5083    0.0000 </r>
       <r>   53.2814    0.0000 </r>
       <r>   53.7759    0.0000 </r>
       <r>   54.3879    0.0000 </r>
       <r>   54.8929    0.0000 </r>
       <r>   56.6200    0.0000 </r>
       <r>   57.1489    0.0000 </r>
       <r>   58.0560    0.0000 </r>
       <r>   59.0077    0.0000 </r>
       <r>   60.1293    0.0000 </r>
       <r>   62.2996    0.0000 </r>
       <r>   63.0595    0.0000 </r>
       <r>   63.2448    0.0000 </r>
       <r>   64.9722    0.0000 </r>
       <r>   66.8479    0.0000 </r>
       <r>   68.9435    0.0000 </r>
       <r>   69.7539    0.0000 </r>
       <r>   69.9235    0.0000 </r>
       <r>   71.9485    0.0000 </r>
      </set>
      <set comment="kpoint 9">
       <r>   -5.1966    1.0000 </r>
       <r>    1.4428    1.0000 </r>
       <r>    4.3127    1.0000 </r>
       <r>    4.3569    1.0000 </r>
       <r>    7.9610    0.0000 </r>
       <r>    8.9554    0.0000 </r>
       <r>    9.8738    0.0000 </r>
       <r>   10.9155    0.0000 </r>
       <r>   13.7350    0.0000 </r>
       <r>   13.8831    0.0000 </r>
       <r>   15.1026    0.0000 </r>
       <r>   17.8345    0.0000 </r>
       <r>   19.5556    0.0000 </r>
       <r>   20.8570    0.0000 </r>
       <r>   22.0332    0.0000 </r>
       <r>   22.6999    0.0000 </r>
       <r>   24.4154    0.0000 </r>
       <r>   26.6502    0.0000 </r>
       <r>   27.7298    0.0000 </r>
       <r>   28.7122    0.0000 </r>
       <r>   31.4156    0.0000 </r>
       <r>   32.4263    0.0000 </r>
       <r>   32.5686    0.0000 </r>
       <r>   35.2044    0.0000 </r>
       <r>   36.1192    0.0000 </r>
       <r>   36.4297    0.0000 </r>
       <r>   36.5712    0.0000 </r>
       <r>   37.9570    0.0000 </r>
       <r>   38.0243    0.0000 </r>
       <r>   38.9099    0.0000 </r>
       <r>   40.4997    0.0000 </r>
       <r>   42.1782    0.0000 </r>
       <r>   43.4068    0.0000 </r>
       <r>   43.6280    0.0000 </r>
       <r>   43.8385    0.0000 </r>
       <r>   44.9464    0.0000 </r>
       <r>   45.7833    0.0000 </r>
       <r>   47.5092    0.0000 </r>
       <r>   48.0644    0.0000 </r>
       <r>   48.6172    0.0000 </r>
       <r>   49.5912    0.0000 </r>
       <r>   49.7788    0.0000 </r>
       <r>   50.9473    0.0000 </r>
       <r>   51.6856    0.0000 </r>
       <r>   53.0442    0.0000 </r>
       <r>   53.4234    0.0000 </r>
       <r>   54.3529    0.0000 </r>
       <r>   55.4096    0.0000 </r>
       <r>   56.9130    0.0000 </r>
       <r>   57.4452    0.0000 </r>
       <r>   59.3899    0.0000 </r>
       <r>   60.5325    0.0000 </r>
       <r>   60.7764    0.0000 </r>
       <r>   61.0926    0.0000 </r>
       <r>   62.0960    0.0000 </r>
       <r>   63.3199    0.0000 </r>
       <r>   64.7076    0.0000 </r>
       <r>   64.9393    0.0000 </r>
       <r>   66.1868    0.0000 </r>
       <r>   66.2274    0.0000 </r>
       <r>   66.7580    0.0000 </r>
       <r>   66.9773    0.0000 </r>
       <r>   68.2273    0.0000 </r>
       <r>   69.4676    0.0000 </r>
      </set>
      <set comment="kpoint 10">
       <r>   -4.4883    1.0000 </r>
       <r>   -0.1010    1.0000 </r>
       <r>    3.9518    1.0000 </r>
       <r>    4.1663    1.0000 </r>
       <r>    7.8040    0.0000 </r>
       <r>    8.9437    0.0000 </r>
       <r>    9.7103    0.0000 </r>
       <r>   11.9600    0.0000 </r>
       <r>   14.5189    0.0000 </r>
       <r>   15.0936    0.0000 </r>
       <r>   15.6881    0.0000 </r>
       <r>   18.4224    0.0000 </r>
       <r>   18.8673    0.0000 </r>
       <r>   20.7198    0.0000 </r>
       <r>   22.5123    0.0000 </r>
       <r>   22.9761    0.0000 </r>
       <r>   24.4087    0.0000 </r>
       <r>   27.8997    0.0000 </r>
       <r>   28.2876    0.0000 </r>
       <r>   29.1107    0.0000 </r>
       <r>   29.5639    0.0000 </r>
       <r>   30.5439    0.0000 </r>
       <r>   32.7975    0.0000 </r>
       <r>   33.9618    0.0000 </r>
       <r>   34.2019    0.0000 </r>
       <r>   35.7004    0.0000 </r>
       <r>   35.8765    0.0000 </r>
       <r>   36.8643    0.0000 </r>
       <r>   37.4032    0.0000 </r>
       <r>   38.5329    0.0000 </r>
       <r>   39.6523    0.0000 </r>
       <r>   40.5737    0.0000 </r>
       <r>   42.9156    0.0000 </r>
       <r>   43.4223    0.0000 </r>
       <r>   43.9955    0.0000 </r>
       <r>   45.2212    0.0000 </r>
       <r>   46.7662    0.0000 </r>
       <r>   47.5942    0.0000 </r>
       <r>   48.4335    0.0000 </r>
       <r>   49.1090    0.0000 </r>
       <r>   49.9550    0.0000 </r>
       <r>   51.1216    0.0000 </r>
       <r>   52.6096    0.0000 </r>
       <r>   52.6587    0.0000 </r>
       <r>   53.2444    0.0000 </r>
       <r>   54.9985    0.0000 </r>
       <r>   55.8317    0.0000 </r>
       <r>   57.4659    0.0000 </r>
       <r>   57.9965    0.0000 </r>
       <r>   59.4667    0.0000 </r>
       <r>   60.7436    0.0000 </r>
       <r>   61.2336    0.0000 </r>
       <r>   61.2725    0.0000 </r>
       <r>   62.7608    0.0000 </r>
       <r>   63.2750    0.0000 </r>
       <r>   64.2059    0.0000 </r>
       <r>   64.5281    0.0000 </r>
       <r>   65.4546    0.0000 </r>
       <r>   65.6215    0.0000 </r>
       <r>   66.2641    0.0000 </r>
       <r>   67.0799    0.0000 </r>
       <r>   67.7870    0.0000 </r>
       <r>   68.2997    0.0000 </r>
       <r>   69.1882    0.0000 </r>
      </set>
      <set comment="kpoint 11">
       <r>   -3.8655    1.0000 </r>
       <r>   -1.1138    1.0000 </r>
       <r>    3.6673    1.0000 </r>
       <r>    4.1969    1.0000 </r>
       <r>    7.7105    0.0000 </r>
       <r>    8.9245    0.0000 </r>
       <r>    9.4536    0.0000 </r>
       <r>   13.3524    0.0000 </r>
       <r>   14.4675    0.0000 </r>
       <r>   16.0464    0.0000 </r>
       <r>   16.9274    0.0000 </r>
       <r>   17.0515    0.0000 </r>
       <r>   17.8342    0.0000 </r>
       <r>   19.7931    0.0000 </r>
       <r>   23.9505    0.0000 </r>
       <r>   25.4752    0.0000 </r>
       <r>   25.7217    0.0000 </r>
       <r>   26.7002    0.0000 </r>
       <r>   27.4536    0.0000 </r>
       <r>   27.6478    0.0000 </r>
       <r>   30.4567    0.0000 </r>
       <r>   31.1956    0.0000 </r>
       <r>   31.4379    0.0000 </r>
       <r>   32.9451    0.0000 </r>
       <r>   33.3953    0.0000 </r>
       <r>   34.5604    0.0000 </r>
       <r>   35.7190    0.0000 </r>
       <r>   35.9270    0.0000 </r>
       <r>   37.7539    0.0000 </r>
       <r>   38.2886    0.0000 </r>
       <r>   38.8756    0.0000 </r>
       <r>   39.8376    0.0000 </r>
       <r>   42.4224    0.0000 </r>
       <r>   43.2195    0.0000 </r>
       <r>   43.5165    0.0000 </r>
       <r>   46.0199    0.0000 </r>
       <r>   46.0391    0.0000 </r>
       <r>   48.9219    0.0000 </r>
       <r>   49.2489    0.0000 </r>
       <r>   50.3173    0.0000 </r>
       <r>   51.5274    0.0000 </r>
       <r>   52.1417    0.0000 </r>
       <r>   53.3224    0.0000 </r>
       <r>   53.3284    0.0000 </r>
       <r>   54.0830    0.0000 </r>
       <r>   54.4994    0.0000 </r>
       <r>   56.1909    0.0000 </r>
       <r>   58.2812    0.0000 </r>
       <r>   58.5506    0.0000 </r>
       <r>   59.7505    0.0000 </r>
       <r>   59.8363    0.0000 </r>
       <r>   61.5573    0.0000 </r>
       <r>   61.9508    0.0000 </r>
       <r>   62.2134    0.0000 </r>
       <r>   63.1191    0.0000 </r>
       <r>   63.7934    0.0000 </r>
       <r>   64.7215    0.0000 </r>
       <r>   65.3712    0.0000 </r>
       <r>   66.5942    0.0000 </r>
       <r>   66.9258    0.0000 </r>
       <r>   67.3180    0.0000 </r>
       <r>   67.4534    0.0000 </r>
       <r>   68.5935    0.0000 </r>
       <r>   68.9687    0.0000 </r>
      </set>
      <set comment="kpoint 12">
       <r>   -4.0275    1.0000 </r>
       <r>   -0.8716    1.0000 </r>
       <r>    3.5434    1.0000 </r>
       <r>    4.3917    1.0000 </r>
       <r>    7.7652    0.0000 </r>
       <r>    9.0588    0.0000 </r>
       <r>    9.3007    0.0000 </r>
       <r>   13.6036    0.0000 </r>
       <r>   14.1703    0.0000 </r>
       <r>   14.8274    0.0000 </r>
       <r>   16.6478    0.0000 </r>
       <r>   17.6663    0.0000 </r>
       <r>   19.0729    0.0000 </r>
       <r>   19.6650    0.0000 </r>
       <r>   22.8606    0.0000 </r>
       <r>   24.6017    0.0000 </r>
       <r>   26.1847    0.0000 </r>
       <r>   27.0777    0.0000 </r>
       <r>   27.8099    0.0000 </r>
       <r>   28.1136    0.0000 </r>
       <r>   30.2754    0.0000 </r>
       <r>   30.5772    0.0000 </r>
       <r>   32.2933    0.0000 </r>
       <r>   32.7747    0.0000 </r>
       <r>   33.1933    0.0000 </r>
       <r>   34.8511    0.0000 </r>
       <r>   36.0055    0.0000 </r>
       <r>   36.0671    0.0000 </r>
       <r>   37.8473    0.0000 </r>
       <r>   38.6899    0.0000 </r>
       <r>   38.8491    0.0000 </r>
       <r>   39.8281    0.0000 </r>
       <r>   42.4720    0.0000 </r>
       <r>   43.2921    0.0000 </r>
       <r>   43.9612    0.0000 </r>
       <r>   45.6884    0.0000 </r>
       <r>   45.9234    0.0000 </r>
       <r>   47.8166    0.0000 </r>
       <r>   49.7798    0.0000 </r>
       <r>   50.3633    0.0000 </r>
       <r>   50.9660    0.0000 </r>
       <r>   51.4482    0.0000 </r>
       <r>   52.1187    0.0000 </r>
       <r>   53.9036    0.0000 </r>
       <r>   54.2954    0.0000 </r>
       <r>   55.3758    0.0000 </r>
       <r>   56.7800    0.0000 </r>
       <r>   58.1525    0.0000 </r>
       <r>   59.1752    0.0000 </r>
       <r>   59.4135    0.0000 </r>
       <r>   59.7640    0.0000 </r>
       <r>   60.8645    0.0000 </r>
       <r>   61.3806    0.0000 </r>
       <r>   62.3754    0.0000 </r>
       <r>   62.5248    0.0000 </r>
       <r>   63.3637    0.0000 </r>
       <r>   65.4533    0.0000 </r>
       <r>   65.6664    0.0000 </r>
       <r>   65.7787    0.0000 </r>
       <r>   66.7166    0.0000 </r>
       <r>   66.9960    0.0000 </r>
       <r>   67.9165    0.0000 </r>
       <r>   68.9684    0.0000 </r>
       <r>   69.2098    0.0000 </r>
      </set>
      <set comment="kpoint 13">
       <r>   -4.7380    1.0000 </r>
       <r>    0.3832    1.0000 </r>
       <r>    3.6057    1.0000 </r>
       <r>    4.7195    1.0000 </r>
       <r>    7.9645    0.0000 </r>
       <r>    9.2235    0.0000 </r>
       <r>    9.3022    0.0000 </r>
       <r>   12.5433    0.0000 </r>
       <r>   12.6668    0.0000 </r>
       <r>   14.9011    0.0000 </r>
       <r>   15.8017    0.0000 </r>
       <r>   18.2382    0.0000 </r>
       <r>   19.6519    0.0000 </r>
       <r>   21.1829    0.0000 </r>
       <r>   21.7118    0.0000 </r>
       <r>   22.7887    0.0000 </r>
       <r>   24.2271    0.0000 </r>
       <r>   27.7514    0.0000 </r>
       <r>   28.0964    0.0000 </r>
       <r>   28.7012    0.0000 </r>
       <r>   30.3045    0.0000 </r>
       <r>   31.4933    0.0000 </r>
       <r>   32.5076    0.0000 </r>
       <r>   34.1055    0.0000 </r>
       <r>   35.1669    0.0000 </r>
       <r>   35.2377    0.0000 </r>
       <r>   36.4660    0.0000 </r>
       <r>   36.8408    0.0000 </r>
       <r>   37.8914    0.0000 </r>
       <r>   39.0902    0.0000 </r>
       <r>   39.6963    0.0000 </r>
       <r>   41.3823    0.0000 </r>
       <r>   42.9328    0.0000 </r>
       <r>   43.8357    0.0000 </r>
       <r>   44.6368    0.0000 </r>
       <r>   44.7985    0.0000 </r>
       <r>   45.7738    0.0000 </r>
       <r>   46.0361    0.0000 </r>
       <r>   47.5095    0.0000 </r>
       <r>   49.7481    0.0000 </r>
       <r>   50.7890    0.0000 </r>
       <r>   50.9321    0.0000 </r>
       <r>   51.5782    0.0000 </r>
       <r>   52.2442    0.0000 </r>
       <r>   52.9533    0.0000 </r>
       <r>   54.4783    0.0000 </r>
       <r>   57.0711    0.0000 </r>
       <r>   57.6050    0.0000 </r>
       <r>   58.0221    0.0000 </r>
       <r>   58.5544    0.0000 </r>
       <r>   60.0374    0.0000 </r>
       <r>   60.3457    0.0000 </r>
       <r>   61.6089    0.0000 </r>
       <r>   62.1871    0.0000 </r>
       <r>   62.6670    0.0000 </r>
       <r>   63.9338    0.0000 </r>
       <r>   64.2518    0.0000 </r>
       <r>   64.9460    0.0000 </r>
       <r>   65.6676    0.0000 </r>
       <r>   66.3825    0.0000 </r>
       <r>   66.8915    0.0000 </r>
       <r>   67.1309    0.0000 </r>
       <r>   67.8964    0.0000 </r>
       <r>   69.2565    0.0000 </r>
      </set>
      <set comment="kpoint 14">
       <r>   -5.4000    1.0000 </r>
       <r>    2.0023    1.0000 </r>
       <r>    3.8810    1.0000 </r>
       <r>    5.1179    1.0000 </r>
       <r>    8.2720    0.0000 </r>
       <r>    8.9706    0.0000 </r>
       <r>    9.2974    0.0000 </r>
       <r>   11.4831    0.0000 </r>
       <r>   11.9740    0.0000 </r>
       <r>   14.1430    0.0000 </r>
       <r>   15.3061    0.0000 </r>
       <r>   17.1296    0.0000 </r>
       <r>   18.9444    0.0000 </r>
       <r>   20.9039    0.0000 </r>
       <r>   21.9178    0.0000 </r>
       <r>   23.9318    0.0000 </r>
       <r>   24.8385    0.0000 </r>
       <r>   26.0091    0.0000 </r>
       <r>   27.7268    0.0000 </r>
       <r>   28.5012    0.0000 </r>
       <r>   31.8951    0.0000 </r>
       <r>   32.0109    0.0000 </r>
       <r>   33.7716    0.0000 </r>
       <r>   34.9285    0.0000 </r>
       <r>   35.7530    0.0000 </r>
       <r>   36.8344    0.0000 </r>
       <r>   37.5407    0.0000 </r>
       <r>   38.2084    0.0000 </r>
       <r>   38.6579    0.0000 </r>
       <r>   39.6182    0.0000 </r>
       <r>   40.3034    0.0000 </r>
       <r>   41.3597    0.0000 </r>
       <r>   43.8141    0.0000 </r>
       <r>   44.2541    0.0000 </r>
       <r>   44.4294    0.0000 </r>
       <r>   44.8835    0.0000 </r>
       <r>   45.8484    0.0000 </r>
       <r>   46.5982    0.0000 </r>
       <r>   46.8411    0.0000 </r>
       <r>   49.2131    0.0000 </r>
       <r>   50.3367    0.0000 </r>
       <r>   50.4120    0.0000 </r>
       <r>   51.0341    0.0000 </r>
       <r>   51.2220    0.0000 </r>
       <r>   51.7684    0.0000 </r>
       <r>   52.4218    0.0000 </r>
       <r>   54.8296    0.0000 </r>
       <r>   54.8917    0.0000 </r>
       <r>   56.5252    0.0000 </r>
       <r>   56.6845    0.0000 </r>
       <r>   58.6163    0.0000 </r>
       <r>   59.2019    0.0000 </r>
       <r>   60.5603    0.0000 </r>
       <r>   61.4138    0.0000 </r>
       <r>   61.6803    0.0000 </r>
       <r>   62.3975    0.0000 </r>
       <r>   63.4532    0.0000 </r>
       <r>   63.9086    0.0000 </r>
       <r>   64.3007    0.0000 </r>
       <r>   66.0220    0.0000 </r>
       <r>   67.1707    0.0000 </r>
       <r>   69.1064    0.0000 </r>
       <r>   69.1544    0.0000 </r>
       <r>   70.0693    0.0000 </r>
      </set>
      <set comment="kpoint 15">
       <r>   -5.8573    1.0000 </r>
       <r>    3.5878    1.0000 </r>
       <r>    4.4838    1.0000 </r>
       <r>    5.4393    1.0000 </r>
       <r>    8.5248    0.0000 </r>
       <r>    8.5249    0.0000 </r>
       <r>    8.7034    0.0000 </r>
       <r>   10.6619    0.0000 </r>
       <r>   12.2307    0.0000 </r>
       <r>   13.2285    0.0000 </r>
       <r>   14.7562    0.0000 </r>
       <r>   16.6397    0.0000 </r>
       <r>   17.4603    0.0000 </r>
       <r>   19.0621    0.0000 </r>
       <r>   22.8308    0.0000 </r>
       <r>   24.4782    0.0000 </r>
       <r>   26.7317    0.0000 </r>
       <r>   27.0730    0.0000 </r>
       <r>   27.6823    0.0000 </r>
       <r>   28.6849    0.0000 </r>
       <r>   31.6737    0.0000 </r>
       <r>   31.8651    0.0000 </r>
       <r>   33.2606    0.0000 </r>
       <r>   35.6701    0.0000 </r>
       <r>   36.6088    0.0000 </r>
       <r>   36.9279    0.0000 </r>
       <r>   38.1068    0.0000 </r>
       <r>   38.1266    0.0000 </r>
       <r>   39.8337    0.0000 </r>
       <r>   40.4407    0.0000 </r>
       <r>   42.0037    0.0000 </r>
       <r>   42.0171    0.0000 </r>
       <r>   43.7009    0.0000 </r>
       <r>   44.5808    0.0000 </r>
       <r>   45.4587    0.0000 </r>
       <r>   46.4710    0.0000 </r>
       <r>   46.7289    0.0000 </r>
       <r>   47.8068    0.0000 </r>
       <r>   47.8403    0.0000 </r>
       <r>   48.7477    0.0000 </r>
       <r>   49.0162    0.0000 </r>
       <r>   49.7864    0.0000 </r>
       <r>   50.7092    0.0000 </r>
       <r>   50.9396    0.0000 </r>
       <r>   51.7123    0.0000 </r>
       <r>   51.9248    0.0000 </r>
       <r>   52.0505    0.0000 </r>
       <r>   52.5890    0.0000 </r>
       <r>   54.1338    0.0000 </r>
       <r>   56.3426    0.0000 </r>
       <r>   56.4973    0.0000 </r>
       <r>   56.5881    0.0000 </r>
       <r>   57.3265    0.0000 </r>
       <r>   58.2152    0.0000 </r>
       <r>   58.3949    0.0000 </r>
       <r>   60.1496    0.0000 </r>
       <r>   61.9154    0.0000 </r>
       <r>   65.2507    0.0000 </r>
       <r>   65.2683    0.0000 </r>
       <r>   65.9176    0.0000 </r>
       <r>   67.3238    0.0000 </r>
       <r>   69.9544    0.0000 </r>
       <r>   72.2019    0.0000 </r>
       <r>   73.1496    0.0000 </r>
      </set>
      <set comment="kpoint 16">
       <r>   -5.5155    1.0000 </r>
       <r>    2.9799    1.0000 </r>
       <r>    4.1607    1.0000 </r>
       <r>    4.1607    1.0000 </r>
       <r>    7.0903    0.0000 </r>
       <r>    9.4664    0.0000 </r>
       <r>   10.4548    0.0000 </r>
       <r>   10.4548    0.0000 </r>
       <r>   12.5512    0.0000 </r>
       <r>   14.0861    0.0000 </r>
       <r>   15.8953    0.0000 </r>
       <r>   17.9598    0.0000 </r>
       <r>   17.9598    0.0000 </r>
       <r>   18.5770    0.0000 </r>
       <r>   24.0068    0.0000 </r>
       <r>   24.0068    0.0000 </r>
       <r>   24.8500    0.0000 </r>
       <r>   25.1388    0.0000 </r>
       <r>   26.5884    0.0000 </r>
       <r>   29.4898    0.0000 </r>
       <r>   31.9126    0.0000 </r>
       <r>   32.5488    0.0000 </r>
       <r>   32.5488    0.0000 </r>
       <r>   36.1844    0.0000 </r>
       <r>   36.1844    0.0000 </r>
       <r>   36.4071    0.0000 </r>
       <r>   37.6246    0.0000 </r>
       <r>   38.8840    0.0000 </r>
       <r>   38.8840    0.0000 </r>
       <r>   38.9506    0.0000 </r>
       <r>   40.8380    0.0000 </r>
       <r>   42.6653    0.0000 </r>
       <r>   43.6459    0.0000 </r>
       <r>   43.6459    0.0000 </r>
       <r>   45.7867    0.0000 </r>
       <r>   45.9636    0.0000 </r>
       <r>   46.3427    0.0000 </r>
       <r>   46.4213    0.0000 </r>
       <r>   46.4213    0.0000 </r>
       <r>   49.1658    0.0000 </r>
       <r>   49.1658    0.0000 </r>
       <r>   50.3128    0.0000 </r>
       <r>   50.5423    0.0000 </r>
       <r>   52.1337    0.0000 </r>
       <r>   52.1337    0.0000 </r>
       <r>   52.7787    0.0000 </r>
       <r>   54.5029    0.0000 </r>
       <r>   54.5639    0.0000 </r>
       <r>   54.5639    0.0000 </r>
       <r>   54.6384    0.0000 </r>
       <r>   55.4128    0.0000 </r>
       <r>   58.2266    0.0000 </r>
       <r>   59.9584    0.0000 </r>
       <r>   59.9584    0.0000 </r>
       <r>   60.2702    0.0000 </r>
       <r>   62.5483    0.0000 </r>
       <r>   65.4570    0.0000 </r>
       <r>   65.4570    0.0000 </r>
       <r>   66.1495    0.0000 </r>
       <r>   66.6493    0.0000 </r>
       <r>   68.7705    0.0000 </r>
       <r>   68.7705    0.0000 </r>
       <r>   69.5277    0.0000 </r>
       <r>   71.4751    0.0000 </r>
      </set>
      <set comment="kpoint 17">
       <r>   -5.0585    1.0000 </r>
       <r>    1.7578    1.0000 </r>
       <r>    3.6582    1.0000 </r>
       <r>    3.8184    1.0000 </r>
       <r>    7.1861    0.0000 </r>
       <r>    9.0584    0.0000 </r>
       <r>   10.7047    0.0000 </r>
       <r>   11.0430    0.0000 </r>
       <r>   14.0165    0.0000 </r>
       <r>   14.5468    0.0000 </r>
       <r>   16.6015    0.0000 </r>
       <r>   18.0808    0.0000 </r>
       <r>   18.9022    0.0000 </r>
       <r>   20.2666    0.0000 </r>
       <r>   21.9039    0.0000 </r>
       <r>   22.4735    0.0000 </r>
       <r>   24.9456    0.0000 </r>
       <r>   25.8634    0.0000 </r>
       <r>   26.4737    0.0000 </r>
       <r>   29.3372    0.0000 </r>
       <r>   31.2688    0.0000 </r>
       <r>   32.4586    0.0000 </r>
       <r>   32.6139    0.0000 </r>
       <r>   34.7334    0.0000 </r>
       <r>   34.8857    0.0000 </r>
       <r>   35.2484    0.0000 </r>
       <r>   36.4504    0.0000 </r>
       <r>   38.8562    0.0000 </r>
       <r>   39.0380    0.0000 </r>
       <r>   40.4589    0.0000 </r>
       <r>   41.1974    0.0000 </r>
       <r>   41.2621    0.0000 </r>
       <r>   42.5762    0.0000 </r>
       <r>   42.8275    0.0000 </r>
       <r>   45.4325    0.0000 </r>
       <r>   45.5739    0.0000 </r>
       <r>   45.8063    0.0000 </r>
       <r>   47.1966    0.0000 </r>
       <r>   47.7660    0.0000 </r>
       <r>   48.5876    0.0000 </r>
       <r>   49.4547    0.0000 </r>
       <r>   50.0037    0.0000 </r>
       <r>   51.6040    0.0000 </r>
       <r>   52.0494    0.0000 </r>
       <r>   52.3628    0.0000 </r>
       <r>   52.7518    0.0000 </r>
       <r>   54.6828    0.0000 </r>
       <r>   55.3079    0.0000 </r>
       <r>   56.3003    0.0000 </r>
       <r>   56.9073    0.0000 </r>
       <r>   58.4595    0.0000 </r>
       <r>   59.2786    0.0000 </r>
       <r>   60.0980    0.0000 </r>
       <r>   62.4520    0.0000 </r>
       <r>   63.2475    0.0000 </r>
       <r>   64.1814    0.0000 </r>
       <r>   65.2668    0.0000 </r>
       <r>   66.3063    0.0000 </r>
       <r>   66.4681    0.0000 </r>
       <r>   67.6354    0.0000 </r>
       <r>   68.1847    0.0000 </r>
       <r>   68.6232    0.0000 </r>
       <r>   69.6902    0.0000 </r>
       <r>   69.7553    0.0000 </r>
      </set>
      <set comment="kpoint 18">
       <r>   -4.3968    1.0000 </r>
       <r>    0.3517    1.0000 </r>
       <r>    3.0382    1.0000 </r>
       <r>    3.6606    1.0000 </r>
       <r>    7.4009    0.0000 </r>
       <r>    9.6833    0.0000 </r>
       <r>   10.4738    0.0000 </r>
       <r>   11.0098    0.0000 </r>
       <r>   15.6649    0.0000 </r>
       <r>   15.9007    0.0000 </r>
       <r>   16.2370    0.0000 </r>
       <r>   18.2912    0.0000 </r>
       <r>   18.9412    0.0000 </r>
       <r>   20.5905    0.0000 </r>
       <r>   21.8962    0.0000 </r>
       <r>   23.3955    0.0000 </r>
       <r>   24.7880    0.0000 </r>
       <r>   25.2889    0.0000 </r>
       <r>   27.1923    0.0000 </r>
       <r>   29.0586    0.0000 </r>
       <r>   30.0160    0.0000 </r>
       <r>   31.1396    0.0000 </r>
       <r>   32.2094    0.0000 </r>
       <r>   33.1355    0.0000 </r>
       <r>   34.3929    0.0000 </r>
       <r>   35.7118    0.0000 </r>
       <r>   36.1292    0.0000 </r>
       <r>   36.5121    0.0000 </r>
       <r>   38.0445    0.0000 </r>
       <r>   39.7610    0.0000 </r>
       <r>   40.7540    0.0000 </r>
       <r>   41.6635    0.0000 </r>
       <r>   42.2389    0.0000 </r>
       <r>   42.3628    0.0000 </r>
       <r>   44.0860    0.0000 </r>
       <r>   45.1055    0.0000 </r>
       <r>   47.7922    0.0000 </r>
       <r>   48.3053    0.0000 </r>
       <r>   49.2174    0.0000 </r>
       <r>   49.4753    0.0000 </r>
       <r>   49.9050    0.0000 </r>
       <r>   50.3298    0.0000 </r>
       <r>   52.0997    0.0000 </r>
       <r>   52.2606    0.0000 </r>
       <r>   52.7863    0.0000 </r>
       <r>   53.5134    0.0000 </r>
       <r>   54.9126    0.0000 </r>
       <r>   56.8390    0.0000 </r>
       <r>   57.1696    0.0000 </r>
       <r>   58.7423    0.0000 </r>
       <r>   60.3386    0.0000 </r>
       <r>   61.5150    0.0000 </r>
       <r>   61.9606    0.0000 </r>
       <r>   62.8945    0.0000 </r>
       <r>   64.0889    0.0000 </r>
       <r>   64.9108    0.0000 </r>
       <r>   65.5390    0.0000 </r>
       <r>   65.8463    0.0000 </r>
       <r>   65.9521    0.0000 </r>
       <r>   67.3546    0.0000 </r>
       <r>   67.6280    0.0000 </r>
       <r>   68.4503    0.0000 </r>
       <r>   69.0932    0.0000 </r>
       <r>   69.5055    0.0000 </r>
      </set>
      <set comment="kpoint 19">
       <r>   -3.6839    1.0000 </r>
       <r>   -0.8045    1.0000 </r>
       <r>    2.5369    1.0000 </r>
       <r>    3.7025    1.0000 </r>
       <r>    7.4645    0.0000 </r>
       <r>   10.2549    0.0000 </r>
       <r>   10.6926    0.0000 </r>
       <r>   11.2087    0.0000 </r>
       <r>   15.3013    0.0000 </r>
       <r>   16.0278    0.0000 </r>
       <r>   17.4741    0.0000 </r>
       <r>   17.5728    0.0000 </r>
       <r>   18.1844    0.0000 </r>
       <r>   22.2322    0.0000 </r>
       <r>   23.2832    0.0000 </r>
       <r>   23.9546    0.0000 </r>
       <r>   25.4674    0.0000 </r>
       <r>   25.5489    0.0000 </r>
       <r>   25.7517    0.0000 </r>
       <r>   28.5172    0.0000 </r>
       <r>   28.8699    0.0000 </r>
       <r>   31.6684    0.0000 </r>
       <r>   31.7189    0.0000 </r>
       <r>   32.6401    0.0000 </r>
       <r>   33.2666    0.0000 </r>
       <r>   34.5233    0.0000 </r>
       <r>   35.6227    0.0000 </r>
       <r>   36.0698    0.0000 </r>
       <r>   36.8956    0.0000 </r>
       <r>   39.2811    0.0000 </r>
       <r>   40.7027    0.0000 </r>
       <r>   40.7434    0.0000 </r>
       <r>   41.9272    0.0000 </r>
       <r>   42.0194    0.0000 </r>
       <r>   44.1038    0.0000 </r>
[...]
        <r>  0.0103  0.0010  0.0048  0.0048  0.0000  0.0000  0.0000  0.0000  0.0000 </r>
       </set>
       <set comment="band 44">
        <r>  0.0016  0.0000  0.0050  0.0050  0.0000  0.0000  0.0000  0.0000  0.0000 </r>
        <r>  0.0016  0.0000  0.0050  0.0050  0.0000  0.0000  0.0000  0.0000  0.0000 </r>
       </set>
       <set comment="band 45">
        <r>  0.0117  0.0079  0.0091  0.0091  0.0000  0.0000  0.0000  0.0000  0.0000 </r>
        <r>  0.0117  0.0079  0.0091  0.0091  0.0000  0.0000  0.0000  0.0000  0.0000 </r>
       </set>
       <set comment="band 46">
        <r>  0.0125  0.0099  0.0147  0.0147  0.0000  0.0000  0.0000  0.0000  0.0000 </r>
        <r>  0.0125  0.0099  0.0147  0.0147  0.0000  0.0000  0.0000  0.0000  0.0000 </r>
       </set>
       <set comment="band 47">
        <r>  0.0355  0.0037  0.0092  0.0092  0.0000  0.0000  0.0000  0.0000  0.0000 </r>
        <r>  0.0355  0.0037  0.0092  0.0092  0.0000  0.0000  0.0000  0.0000  0.0000 </r>
       </set>
       <set comment="band 48">
        <r>  0.0277  0.0013  0.0167  0.0167  0.0000  0.0000  0.0000  0.0000  0.0000 </r>
        <r>  0.0277  0.0013  0.0167  0.0167  0.0000  0.0000  0.0000  0.0000  0.0000 </r>
       </set>
       <set comment="band 49">
        <r>  0.0030  0.0018  0.0131  0.0131  0.0000  0.0000  0.0000  0.0000  0.0000 </r>
        <r>  0.0030  0.0018  0.0131  0.0131  0.0000  0.0000  0.0000  0.0000  0.0000 </r>
       </set>
       <set comment="band 50">
        <r>  0.0000  0.0067  0.0140  0.0140  0.0000  0.0000  0.0000  0.0000  0.0000 </r>
        <r>  0.0000  0.0067  0.0140  0.0140  0.0000  0.0000  0.0000  0.0000  0.0000 </r>
       </set>
       <set comment="band 51">
        <r>  0.0032  0.0042  0.0056  0.0056  0.0000  0.0000  0.0000  0.0000  0.0000 </r>
        <r>  0.0032  0.0042  0.0056  0.0056  0.0000  0.0000  0.0000  0.0000  0.0000 </r>
       </set>
       <set comment="band 52">
        <r>  0.0100  0.0027  0.0139  0.0139  0.0000  0.0000  0.0000  0.0000  0.0000 </r>
        <r>  0.0100  0.0027  0.0139  0.0139  0.0000  0.0000  0.0000  0.0000  0.0000 </r>
       </set>
       <set comment="band 53">
        <r>  0.0026  0.0180  0.0036  0.0036  0.0000  0.0000  0.0000  0.0000  0.0000 </r>
        <r>  0.0026  0.0180  0.0036  0.0036  0.0000  0.0000  0.0000  0.0000  0.0000 </r>
       </set>
       <set comment="band 54">
        <r>  0.0007  0.0003  0.0020  0.0020  0.0000  0.0000  0.0000  0.0000  0.0000 </r>
        <r>  0.0007  0.0003  0.0020  0.0020  0.0000  0.0000  0.0000  0.0000  0.0000 </r>
       </set>
       <set comment="band 55">
        <r>  0.0001  0.0004  0.0030  0.0030  0.0000  0.0000  0.0000  0.0000  0.0000 </r>
        <r>  0.0001  0.0004  0.0030  0.0030  0.0000  0.0000  0.0000  0.0000  0.0000 </r>
       </set>
       <set comment="band 56">
        <r>  0.0073  0.0000  0.0188  0.0188  0.0000  0.0000  0.0000  0.0000  0.0000 </r>
        <r>  0.0073  0.0000  0.0188  0.0188  0.0000  0.0000  0.0000  0.0000  0.0000 </r>
       </set>
       <set comment="band 57">
        <r>  0.0037  0.0058  0.0249  0.0249  0.0000  0.0000  0.0000  0.0000  0.0000 </r>
        <r>  0.0037  0.0058  0.0249  0.0249  0.0000  0.0000  0.0000  0.0000  0.0000 </r>
       </set>
       <set comment="band 58">
        <r>  0.0187  0.0267  0.0035  0.0035  0.0000  0.0000  0.0000  0.0000  0.0000 </r>
        <r>  0.0187  0.0267  0.0035  0.0035  0.0000  0.0000  0.0000  0.0000  0.0000 </r>
       </set>
       <set comment="band 59">
        <r>  0.0060  0.0006  0.0029  0.0029  0.0000  0.0000  0.0000  0.0000  0.0000 </r>
        <r>  0.0060  0.0006  0.0029  0.0029  0.0000  0.0000  0.0000  0.0000  0.0000 </r>
       </set>
       <set comment="band 60">
        <r>  0.0075  0.0025  0.0142  0.0142  0.0000  0.0000  0.0000  0.0000  0.0000 </r>
        <r>  0.0075  0.0025  0.0142  0.0142  0.0000  0.0000  0.0000  0.0000  0.0000 </r>
       </set>
       <set comment="band 61">
        <r>  0.0354  0.0059  0.0340  0.0340  0.0000  0.0000  0.0000  0.0000  0.0000 </r>
        <r>  0.0354  0.0059  0.0340  0.0340  0.0000  0.0000  0.0000  0.0000  0.0000 </r>
       </set>
       <set comment="band 62">
        <r>  0.0574  0.0015  0.0096  0.0096  0.0000  0.0000  0.0000  0.0000  0.0000 </r>
        <r>  0.0574  0.0015  0.0096  0.0096  0.0000  0.0000  0.0000  0.0000  0.0000 </r>
       </set>
       <set comment="band 63">
        <r>  0.0222  0.0123  0.0045  0.0046  0.0000  0.0000  0.0000  0.0000  0.0000 </r>
        <r>  0.0220  0.0125  0.0046  0.0045  0.0000  0.0000  0.0000  0.0000  0.0000 </r>
       </set>
       <set comment="band 64">
        <r>  0.0012  0.0128  0.0064  0.0064  0.0000  0.0000  0.0000  0.0000  0.0000 </r>
        <r>  0.0011  0.0128  0.0064  0.0063  0.0000  0.0000  0.0000  0.0000  0.0000 </r>
       </set>
      </set>
      <set comment="kpoint 47">
       <set comment="band 1">
        <r>  0.2331  0.0000  0.0241  0.0110  0.0000  0.0000  0.0000  0.0000  0.0000 </r>
        <r>  0.1729  0.0000  0.0325  0.0148  0.0000  0.0000  0.0000  0.0000  0.0000 </r>
       </set>
       <set comment="band 2">
        <r>  0.1729  0.0000  0.0325  0.0148  0.0000  0.0000  0.0000  0.0000  0.0000 </r>
        <r>  0.2331  0.0000  0.0241  0.0110  0.0000  0.0000  0.0000  0.0000  0.0000 </r>
       </set>
       <set comment="band 3">
        <r>  0.0007  0.0704  0.0331  0.0577  0.0000  0.0000  0.0000  0.0000  0.0000 </r>
        <r>  0.0007  0.0703  0.0332  0.0578  0.0000  0.0000  0.0000  0.0000  0.0000 </r>
       </set>
       <set comment="band 4">
        <r>  0.0007  0.0703  0.0332  0.0578  0.0000  0.0000  0.0000  0.0000  0.0000 </r>
        <r>  0.0007  0.0704  0.0331  0.0577  0.0000  0.0000  0.0000  0.0000  0.0000 </r>
       </set>
       <set comment="band 5">
        <r>  0.0272  0.0465  0.0184  0.0184  0.0000  0.0000  0.0000  0.0000  0.0000 </r>
        <r>  0.0270  0.0461  0.0185  0.0185  0.0000  0.0000  0.0000  0.0000  0.0000 </r>
       </set>
       <set comment="band 6">
        <r>  0.0270  0.0461  0.0185  0.0185  0.0000  0.0000  0.0000  0.0000  0.0000 </r>
        <r>  0.0272  0.0465  0.0184  0.0184  0.0000  0.0000  0.0000  0.0000  0.0000 </r>
       </set>
       <set comment="band 7">
        <r>  0.0343  0.0389  0.0358  0.0329  0.0000  0.0000  0.0000  0.0000  0.0000 </r>
        <r>  0.0344  0.0391  0.0356  0.0328  0.0000  0.0000  0.0000  0.0000  0.0000 </r>
       </set>
       <set comment="band 8">
        <r>  0.0344  0.0391  0.0356  0.0328  0.0000  0.0000  0.0000  0.0000  0.0000 </r>
        <r>  0.0343  0.0389  0.0358  0.0329  0.0000  0.0000  0.0000  0.0000  0.0000 </r>
       </set>
       <set comment="band 9">
        <r>  0.0001  0.0379  0.0363  0.0598  0.0000  0.0000  0.0000  0.0000  0.0000 </r>
        <r>  0.0001  0.0380  0.0363  0.0597  0.0000  0.0000  0.0000  0.0000  0.0000 </r>
       </set>
       <set comment="band 10">
        <r>  0.0001  0.0380  0.0363  0.0597  0.0000  0.0000  0.0000  0.0000  0.0000 </r>
        <r>  0.0001  0.0379  0.0363  0.0598  0.0000  0.0000  0.0000  0.0000  0.0000 </r>
       </set>
       <set comment="band 11">
        <r>  0.0250  0.0000  0.0668  0.0356  0.0000  0.0000  0.0000  0.0000  0.0000 </r>
        <r>  0.0255  0.0000  0.0655  0.0349  0.0000  0.0000  0.0000  0.0000  0.0000 </r>
       </set>
       <set comment="band 12">
        <r>  0.0255  0.0000  0.0655  0.0349  0.0000  0.0000  0.0000  0.0000  0.0000 </r>
        <r>  0.0250  0.0000  0.0668  0.0356  0.0000  0.0000  0.0000  0.0000  0.0000 </r>
       </set>
       <set comment="band 13">
        <r>  0.0000  0.0047  0.0149  0.0199  0.0000  0.0000  0.0000  0.0000  0.0000 </r>
        <r>  0.0000  0.0044  0.0159  0.0213  0.0000  0.0000  0.0000  0.0000  0.0000 </r>
       </set>
       <set comment="band 14">
        <r>  0.0000  0.0044  0.0159  0.0213  0.0000  0.0000  0.0000  0.0000  0.0000 </r>
        <r>  0.0000  0.0047  0.0149  0.0199  0.0000  0.0000  0.0000  0.0000  0.0000 </r>
       </set>
       <set comment="band 15">
        <r>  0.0033  0.0297  0.0630  0.0031  0.0000  0.0000  0.0000  0.0000  0.0000 </r>
        <r>  0.0032  0.0286  0.0655  0.0032  0.0000  0.0000  0.0000  0.0000  0.0000 </r>
       </set>
       <set comment="band 16">
        <r>  0.0032  0.0286  0.0655  0.0032  0.0000  0.0000  0.0000  0.0000  0.0000 </r>
        <r>  0.0033  0.0297  0.0630  0.0031  0.0000  0.0000  0.0000  0.0000  0.0000 </r>
       </set>
       <set comment="band 17">
        <r>  0.0403  0.0000  0.0018  0.0126  0.0000  0.0000  0.0000  0.0000  0.0000 </r>
        <r>  0.0407  0.0000  0.0018  0.0124  0.0000  0.0000  0.0000  0.0000  0.0000 </r>
       </set>
       <set comment="band 18">
        <r>  0.0407  0.0000  0.0018  0.0124  0.0000  0.0000  0.0000  0.0000  0.0000 </r>
        <r>  0.0403  0.0000  0.0018  0.0126  0.0000  0.0000  0.0000  0.0000  0.0000 </r>
       </set>
       <set comment="band 19">
        <r>  0.0078  0.0189  0.0012  0.0443  0.0000  0.0000  0.0000  0.0000  0.0000 </r>
        <r>  0.0084  0.0203  0.0011  0.0412  0.0000  0.0000  0.0000  0.0000  0.0000 </r>
       </set>
       <set comment="band 20">
        <r>  0.0084  0.0203  0.0011  0.0412  0.0000  0.0000  0.0000  0.0000  0.0000 </r>
        <r>  0.0078  0.0189  0.0012  0.0443  0.0000  0.0000  0.0000  0.0000  0.0000 </r>
       </set>
       <set comment="band 21">
        <r>  0.0066  0.0484  0.0061  0.0027  0.0000  0.0000  0.0000  0.0000  0.0000 </r>
        <r>  0.0066  0.0487  0.0060  0.0026  0.0000  0.0000  0.0000  0.0000  0.0000 </r>
       </set>
       <set comment="band 22">
        <r>  0.0066  0.0487  0.0060  0.0026  0.0000  0.0000  0.0000  0.0000  0.0000 </r>
        <r>  0.0066  0.0484  0.0061  0.0027  0.0000  0.0000  0.0000  0.0000  0.0000 </r>
       </set>
       <set comment="band 23">
        <r>  0.0011  0.0132  0.0033  0.0029  0.0000  0.0000  0.0000  0.0000  0.0000 </r>
        <r>  0.0011  0.0132  0.0033  0.0029  0.0000  0.0000  0.0000  0.0000  0.0000 </r>
       </set>
       <set comment="band 24">
        <r>  0.0011  0.0132  0.0033  0.0029  0.0000  0.0000  0.0000  0.0000  0.0000 </r>
        <r>  0.0011  0.0132  0.0033  0.0029  0.0000  0.0000  0.0000  0.0000  0.0000 </r>
       </set>
       <set comment="band 25">
        <r>  0.0130  0.0006  0.0062  0.0002  0.0000  0.0000  0.0000  0.0000  0.0000 </r>
        <r>  0.0149  0.0007  0.0055  0.0002  0.0000  0.0000  0.0000  0.0000  0.0000 </r>
       </set>
       <set comment="band 26">
        <r>  0.0149  0.0007  0.0055  0.0002  0.0000  0.0000  0.0000  0.0000  0.0000 </r>
        <r>  0.0130  0.0006  0.0062  0.0002  0.0000  0.0000  0.0000  0.0000  0.0000 </r>
       </set>
       <set comment="band 27">
        <r>  0.0401  0.0168  0.0007  0.0064  0.0000  0.0000  0.0000  0.0000  0.0000 </r>
        <r>  0.0395  0.0165  0.0007  0.0065  0.0000  0.0000  0.0000  0.0000  0.0000 </r>
       </set>
       <set comment="band 28">
        <r>  0.0395  0.0165  0.0007  0.0065  0.0000  0.0000  0.0000  0.0000  0.0000 </r>
        <r>  0.0401  0.0168  0.0007  0.0064  0.0000  0.0000  0.0000  0.0000  0.0000 </r>
       </set>
       <set comment="band 29">
        <r>  0.0005  0.0071  0.0000  0.0140  0.0000  0.0000  0.0000  0.0000  0.0000 </r>
        <r>  0.0008  0.0101  0.0000  0.0098  0.0000  0.0000  0.0000  0.0000  0.0000 </r>
       </set>
       <set comment="band 30">
        <r>  0.0008  0.0101  0.0000  0.0098  0.0000  0.0000  0.0000  0.0000  0.0000 </r>
        <r>  0.0005  0.0071  0.0000  0.0140  0.0000  0.0000  0.0000  0.0000  0.0000 </r>
       </set>
       <set comment="band 31">
        <r>  0.0044  0.0001  0.0221  0.0086  0.0000  0.0000  0.0000  0.0000  0.0000 </r>
        <r>  0.0041  0.0001  0.0236  0.0092  0.0000  0.0000  0.0000  0.0000  0.0000 </r>
       </set>
       <set comment="band 32">
        <r>  0.0041  0.0001  0.0236  0.0092  0.0000  0.0000  0.0000  0.0000  0.0000 </r>
        <r>  0.0044  0.0001  0.0221  0.0086  0.0000  0.0000  0.0000  0.0000  0.0000 </r>
       </set>
       <set comment="band 33">
        <r>  0.0007  0.0052  0.0008  0.0272  0.0000  0.0000  0.0000  0.0000  0.0000 </r>
        <r>  0.0007  0.0052  0.0008  0.0272  0.0000  0.0000  0.0000  0.0000  0.0000 </r>
       </set>
       <set comment="band 34">
        <r>  0.0007  0.0052  0.0008  0.0272  0.0000  0.0000  0.0000  0.0000  0.0000 </r>
        <r>  0.0007  0.0052  0.0008  0.0272  0.0000  0.0000  0.0000  0.0000  0.0000 </r>
       </set>
       <set comment="band 35">
        <r>  0.0000  0.0087  0.0129  0.0068  0.0000  0.0000  0.0000  0.0000  0.0000 </r>
        <r>  0.0000  0.0087  0.0129  0.0068  0.0000  0.0000  0.0000  0.0000  0.0000 </r>
       </set>
       <set comment="band 36">
        <r>  0.0000  0.0087  0.0129  0.0068  0.0000  0.0000  0.0000  0.0000  0.0000 </r>
        <r>  0.0000  0.0087  0.0129  0.0068  0.0000  0.0000  0.0000  0.0000  0.0000 </r>
       </set>
       <set comment="band 37">
        <r>  0.0070  0.0286  0.0003  0.0003  0.0000  0.0000  0.0000  0.0000  0.0000 </r>
        <r>  0.0070  0.0286  0.0003  0.0003  0.0000  0.0000  0.0000  0.0000  0.0000 </r>
       </set>
       <set comment="band 38">
        <r>  0.0070  0.0286  0.0003  0.0003  0.0000  0.0000  0.0000  0.0000  0.0000 </r>
        <r>  0.0070  0.0286  0.0003  0.0003  0.0000  0.0000  0.0000  0.0000  0.0000 </r>
       </set>
       <set comment="band 39">
        <r>  0.0064  0.0008  0.0001  0.0087  0.0000  0.0000  0.0000  0.0000  0.0000 </r>
        <r>  0.0064  0.0008  0.0001  0.0087  0.0000  0.0000  0.0000  0.0000  0.0000 </r>
       </set>
       <set comment="band 40">
        <r>  0.0064  0.0008  0.0001  0.0087  0.0000  0.0000  0.0000  0.0000  0.0000 </r>
        <r>  0.0064  0.0008  0.0001  0.0087  0.0000  0.0000  0.0000  0.0000  0.0000 </r>
       </set>
       <set comment="band 41">
        <r>  0.0038  0.0003  0.0041  0.0000  0.0000  0.0000  0.0000  0.0000  0.0000 </r>
        <r>  0.0038  0.0003  0.0041  0.0000  0.0000  0.0000  0.0000  0.0000  0.0000 </r>
       </set>
       <set comment="band 42">
        <r>  0.0038  0.0003  0.0041  0.0000  0.0000  0.0000  0.0000  0.0000  0.0000 </r>
        <r>  0.0038  0.0003  0.0041  0.0000  0.0000  0.0000  0.0000  0.0000  0.0000 </r>
       </set>
       <set comment="band 43">
        <r>  0.0025  0.0195  0.0249  0.0019  0.0000  0.0000  0.0000  0.0000  0.0000 </r>
        <r>  0.0025  0.0195  0.0249  0.0019  0.0000  0.0000  0.0000  0.0000  0.0000 </r>
       </set>
       <set comment="band 44">
        <r>  0.0025  0.0195  0.0249  0.0019  0.0000  0.0000  0.0000  0.0000  0.0000 </r>
        <r>  0.0025  0.0195  0.0249  0.0019  0.0000  0.0000  0.0000  0.0000  0.0000 </r>
       </set>
       <set comment="band 45">
        <r>  0.0102  0.0006  0.0032  0.0058  0.0000  0.0000  0.0000  0.0000  0.0000 </r>
        <r>  0.0103  0.0006  0.0032  0.0058  0.0000  0.0000  0.0000  0.0000  0.0000 </r>
       </set>
       <set comment="band 46">
        <r>  0.0103  0.0006  0.0032  0.0058  0.0000  0.0000  0.0000  0.0000  0.0000 </r>
        <r>  0.0102  0.0006  0.0032  0.0058  0.0000  0.0000  0.0000  0.0000  0.0000 </r>
       </set>
       <set comment="band 47">
        <r>  0.0216  0.0142  0.0090  0.0066  0.0000  0.0000  0.0000  0.0000  0.0000 </r>
        <r>  0.0214  0.0141  0.0091  0.0067  0.0000  0.0000  0.0000  0.0000  0.0000 </r>
       </set>
       <set comment="band 48">
        <r>  0.0214  0.0141  0.0091  0.0067  0.0000  0.0000  0.0000  0.0000  0.0000 </r>
        <r>  0.0216  0.0142  0.0090  0.0066  0.0000  0.0000  0.0000  0.0000  0.0000 </r>
       </set>
       <set comment="band 49">
        <r>  0.0093  0.0001  0.0001  0.0389  0.0000  0.0000  0.0000  0.0000  0.0000 </r>
        <r>  0.0093  0.0001  0.0001  0.0389  0.0000  0.0000  0.0000  0.0000  0.0000 </r>
       </set>
       <set comment="band 50">
        <r>  0.0093  0.0001  0.0001  0.0389  0.0000  0.0000  0.0000  0.0000  0.0000 </r>
        <r>  0.0093  0.0001  0.0001  0.0389  0.0000  0.0000  0.0000  0.0000  0.0000 </r>
       </set>
       <set comment="band 51">
        <r>  0.0014  0.0053  0.0411  0.0060  0.0000  0.0000  0.0000  0.0000  0.0000 </r>
        <r>  0.0012  0.0047  0.0467  0.0068  0.0000  0.0000  0.0000  0.0000  0.0000 </r>
       </set>
       <set comment="band 52">
        <r>  0.0012  0.0047  0.0467  0.0068  0.0000  0.0000  0.0000  0.0000  0.0000 </r>
        <r>  0.0014  0.0053  0.0411  0.0060  0.0000  0.0000  0.0000  0.0000  0.0000 </r>
       </set>
       <set comment="band 53">
        <r>  0.0034  0.0016  0.0003  0.0105  0.0000  0.0000  0.0000  0.0000  0.0000 </r>
        <r>  0.0203  0.0095  0.0000  0.0018  0.0000  0.0000  0.0000  0.0000  0.0000 </r>
       </set>
       <set comment="band 54">
        <r>  0.0203  0.0095  0.0000  0.0018  0.0000  0.0000  0.0000  0.0000  0.0000 </r>
        <r>  0.0034  0.0016  0.0003  0.0105  0.0000  0.0000  0.0000  0.0000  0.0000 </r>
       </set>
       <set comment="band 55">
        <r>  0.0078  0.0000  0.0015  0.0053  0.0000  0.0000  0.0000  0.0000  0.0000 </r>
        <r>  0.0056  0.0000  0.0020  0.0074  0.0000  0.0000  0.0000  0.0000  0.0000 </r>
       </set>
       <set comment="band 56">
        <r>  0.0056  0.0000  0.0020  0.0074  0.0000  0.0000  0.0000  0.0000  0.0000 </r>
        <r>  0.0079  0.0000  0.0015  0.0053  0.0000  0.0000  0.0000  0.0000  0.0000 </r>
       </set>
       <set comment="band 57">
        <r>  0.0008  0.0037  0.0124  0.0039  0.0000  0.0000  0.0000  0.0000  0.0000 </r>
        <r>  0.0009  0.0039  0.0116  0.0037  0.0000  0.0000  0.0000  0.0000  0.0000 </r>
       </set>
       <set comment="band 58">
        <r>  0.0009  0.0039  0.0116  0.0037  0.0000  0.0000  0.0000  0.0000  0.0000 </r>
        <r>  0.0008  0.0037  0.0124  0.0039  0.0000  0.0000  0.0000  0.0000  0.0000 </r>
       </set>
       <set comment="band 59">
        <r>  0.0382  0.0085  0.0226  0.0064  0.0000  0.0000  0.0000  0.0000  0.0000 </r>
        <r>  0.0302  0.0067  0.0285  0.0080  0.0000  0.0000  0.0000  0.0000  0.0000 </r>
       </set>
       <set comment="band 60">
        <r>  0.0302  0.0067  0.0285  0.0080  0.0000  0.0000  0.0000  0.0000  0.0000 </r>
        <r>  0.0382  0.0085  0.0226  0.0064  0.0000  0.0000  0.0000  0.0000  0.0000 </r>
       </set>
       <set comment="band 61">
        <r>  0.0178  0.0013  0.0027  0.0247  0.0000  0.0000  0.0000  0.0000  0.0000 </r>
        <r>  0.0306  0.0023  0.0016  0.0143  0.0000  0.0000  0.0000  0.0000  0.0000 </r>
       </set>
       <set comment="band 62">
        <r>  0.0305  0.0022  0.0016  0.0144  0.0000  0.0000  0.0000  0.0000  0.0000 </r>
        <r>  0.0177  0.0013  0.0027  0.0248  0.0000  0.0000  0.0000  0.0000  0.0000 </r>
       </set>
       <set comment="band 63">
        <r>  0.0033  0.0000  0.0030  0.0089  0.0000  0.0000  0.0000  0.0000  0.0000 </r>
        <r>  0.0010  0.0000  0.0100  0.0297  0.0000  0.0000  0.0000  0.0000  0.0000 </r>
       </set>
       <set comment="band 64">
        <r>  0.0005  0.0004  0.0093  0.0308  0.0000  0.0000  0.0000  0.0000  0.0000 </r>
        <r>  0.0034  0.0003  0.0044  0.0075  0.0000  0.0000  0.0000  0.0000  0.0000 </r>
       </set>
      </set>
     </set>
    </set>
   </array>
  </projected>
 </calculation>
 <structure name="finalpos" >
  <crystal>
   <varray name="basis" >
    <v>       0.00000000       2.73461824       2.73461824 </v>
    <v>       2.73461824       0.00000000       2.73461824 </v>
    <v>       2.73461824       2.73461824       0.00000000 </v>
   </varray>
   <i name="volume">     40.89969924 </i>
   <varray name="rec_basis" >
    <v>      -0.18284088       0.18284088       0.18284088 </v>
    <v>       0.18284088      -0.18284088       0.18284088 </v>
    <v>       0.18284088       0.18284088      -0.18284088 </v>
   </varray>
  </crystal>
  <varray name="positions" >
   <v>       0.25000000       0.25000000       0.25000000 </v>
   <v>       0.00000000       0.00000000       0.00000000 </v>
  </varray>
 </structure>
</modeling>
