<?xml version="1.0" encoding="ISO-8859-1"?>
<modeling>
 <generator>
  <i name="program" type="string">vasp </i>
  <i name="version" type="string">6.3.2  </i>
  <i name="subversion" type="string">27Jun22 (build May 29 2024 20:51:42) complex                          parallel </i>
  <i name="platform" type="string">LinuxIFC </i>
  <i name="date" type="string">2026 05 24 </i>
  <i name="time" type="string">12:21:25 </i>
 </generator>
 <incar>
  <i type="string" name="PREC">Accurate</i>
  <i type="string" name="ALGO">Fast</i>
  <i type="int" name="ISPIN">     1</i>
  <i type="int" name="ICHARG">    11</i>
  <i type="int" name="NELM">    60</i>
  <i type="int" name="NELMIN">     5</i>
  <i name="EDIFF">      0.00010000</i>
  <i type="int" name="NSW">     0</i>
  <i type="int" name="ISYM">     0</i>
  <i name="ENCUT">    520.00000000</i>
  <i type="int" name="NBANDS">    39</i>
  <i type="logical" name="LREAL"> F  </i>
  <i type="int" name="ISMEAR">     0</i>
  <i name="SIGMA">      0.01000000</i>
  <i type="logical" name="LWAVE"> F  </i>
  <i type="logical" name="LCHARG"> F  </i>
  <i type="logical" name="LVHAR"> F  </i>
  <i type="int" name="LORBIT">    11</i>
  <i type="logical" name="LASPH"> T  </i>
  <i type="logical" name="LAECHG"> F  </i>
 </incar>
 <primitive_cell>
  <structure name="primitive_cell" >
   <crystal>
    <varray name="basis" >
     <v>       0.00000000       2.73461824       2.73461824 </v>
     <v>       2.73461824       0.00000000       2.73461824 </v>
     <v>       2.73461824       2.73461824       0.00000000 </v>
    </varray>
    <i name="volume">     40.89969924 </i>
    <varray name="rec_basis" >
     <v>      -0.18284088       0.18284088       0.18284088 </v>
     <v>       0.18284088      -0.18284088       0.18284088 </v>
     <v>       0.18284088       0.18284088      -0.18284088 </v>
    </varray>
   </crystal>
   <varray name="positions" >
    <v>       0.25000000       0.25000000       0.25000000 </v>
    <v>       0.00000000       0.00000000       0.00000000 </v>
   </varray>
  </structure>
  <varray name="primitive_index" >
   <v type="int" >        1 </v>
   <v type="int" >        2 </v>
  </varray>
 </primitive_cell>
 <kpoints>
  <varray name="kpointlist" >
   <v>       0.00000000       0.00000000       0.00000000 </v>
   <v>       0.02173913       0.00000000       0.02173913 </v>
   <v>       0.04347826       0.00000000       0.04347826 </v>
   <v>       0.06521739       0.00000000       0.06521739 </v>
   <v>       0.08695652       0.00000000       0.08695652 </v>
   <v>       0.10869565       0.00000000       0.10869565 </v>
   <v>       0.13043478       0.00000000       0.13043478 </v>
   <v>       0.15217391       0.00000000       0.15217391 </v>
   <v>       0.17391304       0.00000000       0.17391304 </v>
   <v>       0.19565217       0.00000000       0.19565217 </v>
   <v>       0.21739130       0.00000000       0.21739130 </v>
   <v>       0.23913043       0.00000000       0.23913043 </v>
   <v>       0.26086957       0.00000000       0.26086957 </v>
   <v>       0.28260870       0.00000000       0.28260870 </v>
   <v>       0.30434783       0.00000000       0.30434783 </v>
   <v>       0.32608696       0.00000000       0.32608696 </v>
   <v>       0.34782609       0.00000000       0.34782609 </v>
   <v>       0.36956522       0.00000000       0.36956522 </v>
   <v>       0.39130435       0.00000000       0.39130435 </v>
   <v>       0.41304348       0.00000000       0.41304348 </v>
   <v>       0.43478261       0.00000000       0.43478261 </v>
   <v>       0.45652174       0.00000000       0.45652174 </v>
   <v>       0.47826087       0.00000000       0.47826087 </v>
   <v>       0.50000000       0.00000000       0.50000000 </v>
   <v>       0.50000000       0.00000000       0.50000000 </v>
   <v>       0.50000000       0.02083333       0.52083333 </v>
   <v>       0.50000000       0.04166667       0.54166667 </v>
   <v>       0.50000000       0.06250000       0.56250000 </v>
   <v>       0.50000000       0.08333333       0.58333333 </v>
   <v>       0.50000000       0.10416667       0.60416667 </v>
   <v>       0.50000000       0.12500000       0.62500000 </v>
   <v>       0.50000000       0.14583333       0.64583333 </v>
   <v>       0.50000000       0.16666667       0.66666667 </v>
   <v>       0.50000000       0.18750000       0.68750000 </v>
   <v>       0.50000000       0.20833333       0.70833333 </v>
   <v>       0.50000000       0.22916667       0.72916667 </v>
   <v>       0.50000000       0.25000000       0.75000000 </v>
   <v>       0.50000000       0.25000000       0.75000000 </v>
   <v>       0.48611111       0.26388889       0.75000000 </v>
   <v>       0.47222222       0.27777778       0.75000000 </v>
   <v>       0.45833333       0.29166667       0.75000000 </v>
   <v>       0.44444444       0.30555556       0.75000000 </v>
   <v>       0.43055556       0.31944444       0.75000000 </v>
   <v>       0.41666667       0.33333333       0.75000000 </v>
   <v>       0.40277778       0.34722222       0.75000000 </v>
   <v>       0.38888889       0.36111111       0.75000000 </v>
   <v>       0.37500000       0.37500000       0.75000000 </v>
   <v>       0.37500000       0.37500000       0.75000000 </v>
   <v>       0.36000000       0.36000000       0.72000000 </v>
   <v>       0.34500000       0.34500000       0.69000000 </v>
   <v>       0.33000000       0.33000000       0.66000000 </v>
   <v>       0.31500000       0.31500000       0.63000000 </v>
   <v>       0.30000000       0.30000000       0.60000000 </v>
   <v>       0.28500000       0.28500000       0.57000000 </v>
   <v>       0.27000000       0.27000000       0.54000000 </v>
   <v>       0.25500000       0.25500000       0.51000000 </v>
   <v>       0.24000000       0.24000000       0.48000000 </v>
   <v>       0.22500000       0.22500000       0.45000000 </v>
   <v>       0.21000000       0.21000000       0.42000000 </v>
   <v>       0.19500000       0.19500000       0.39000000 </v>
   <v>       0.18000000       0.18000000       0.36000000 </v>
   <v>       0.16500000       0.16500000       0.33000000 </v>
   <v>       0.15000000       0.15000000       0.30000000 </v>
   <v>       0.13500000       0.13500000       0.27000000 </v>
   <v>       0.12000000       0.12000000       0.24000000 </v>
   <v>       0.10500000       0.10500000       0.21000000 </v>
   <v>       0.09000000       0.09000000       0.18000000 </v>
   <v>       0.07500000       0.07500000       0.15000000 </v>
   <v>       0.06000000       0.06000000       0.12000000 </v>
   <v>       0.04500000       0.04500000       0.09000000 </v>
   <v>       0.03000000       0.03000000       0.06000000 </v>
   <v>       0.01500000       0.01500000       0.03000000 </v>
   <v>       0.00000000       0.00000000       0.00000000 </v>
   <v>       0.00000000       0.00000000       0.00000000 </v>
   <v>       0.02500000       0.02500000       0.02500000 </v>
   <v>       0.05000000       0.05000000       0.05000000 </v>
   <v>       0.07500000       0.07500000       0.07500000 </v>
   <v>       0.10000000       0.10000000       0.10000000 </v>
   <v>       0.12500000       0.12500000       0.12500000 </v>
   <v>       0.15000000       0.15000000       0.15000000 </v>
   <v>       0.17500000       0.17500000       0.17500000 </v>
   <v>       0.20000000       0.20000000       0.20000000 </v>
   <v>       0.22500000       0.22500000       0.22500000 </v>
   <v>       0.25000000       0.25000000       0.25000000 </v>
   <v>       0.27500000       0.27500000       0.27500000 </v>
   <v>       0.30000000       0.30000000       0.30000000 </v>
   <v>       0.32500000       0.32500000       0.32500000 </v>
   <v>       0.35000000       0.35000000       0.35000000 </v>
   <v>       0.37500000       0.37500000       0.37500000 </v>
   <v>       0.40000000       0.40000000       0.40000000 </v>
   <v>       0.42500000       0.42500000       0.42500000 </v>
   <v>       0.45000000       0.45000000       0.45000000 </v>
   <v>       0.47500000       0.47500000       0.47500000 </v>
   <v>       0.50000000       0.50000000       0.50000000 </v>
   <v>       0.50000000       0.50000000       0.50000000 </v>
   <v>       0.50833333       0.48333333       0.50833333 </v>
   <v>       0.51666667       0.46666667       0.51666667 </v>
   <v>       0.52500000       0.45000000       0.52500000 </v>
   <v>       0.53333333       0.43333333       0.53333333 </v>
   <v>       0.54166667       0.41666667       0.54166667 </v>
   <v>       0.55000000       0.40000000       0.55000000 </v>
   <v>       0.55833333       0.38333333       0.55833333 </v>
   <v>       0.56666667       0.36666667       0.56666667 </v>
   <v>       0.57500000       0.35000000       0.57500000 </v>
   <v>       0.58333333       0.33333333       0.58333333 </v>
   <v>       0.59166667       0.31666667       0.59166667 </v>
   <v>       0.60000000       0.30000000       0.60000000 </v>
   <v>       0.60833333       0.28333333       0.60833333 </v>
   <v>       0.61666667       0.26666667       0.61666667 </v>
   <v>       0.62500000       0.25000000       0.62500000 </v>
   <v>       0.62500000       0.25000000       0.62500000 </v>
   <v>       0.61111111       0.25000000       0.63888889 </v>
   <v>       0.59722222       0.25000000       0.65277778 </v>
   <v>       0.58333333       0.25000000       0.66666667 </v>
   <v>       0.56944444       0.25000000       0.68055556 </v>
   <v>       0.55555556       0.25000000       0.69444444 </v>
   <v>       0.54166667       0.25000000       0.70833333 </v>
   <v>       0.52777778       0.25000000       0.72222222 </v>
   <v>       0.51388889       0.25000000       0.73611111 </v>
   <v>       0.50000000       0.25000000       0.75000000 </v>
   <v>       0.50000000       0.25000000       0.75000000 </v>
   <v>       0.50000000       0.26470588       0.73529412 </v>
   <v>       0.50000000       0.27941176       0.72058824 </v>
   <v>       0.50000000       0.29411765       0.70588235 </v>
   <v>       0.50000000       0.30882353       0.69117647 </v>
   <v>       0.50000000       0.32352941       0.67647059 </v>
   <v>       0.50000000       0.33823529       0.66176471 </v>
   <v>       0.50000000       0.35294118       0.64705882 </v>
   <v>       0.50000000       0.36764706       0.63235294 </v>
   <v>       0.50000000       0.38235294       0.61764706 </v>
   <v>       0.50000000       0.39705882       0.60294118 </v>
   <v>       0.50000000       0.41176471       0.58823529 </v>
   <v>       0.50000000       0.42647059       0.57352941 </v>
   <v>       0.50000000       0.44117647       0.55882353 </v>
   <v>       0.50000000       0.45588235       0.54411765 </v>
   <v>       0.50000000       0.47058824       0.52941176 </v>
   <v>       0.50000000       0.48529412       0.51470588 </v>
   <v>       0.50000000       0.50000000       0.50000000 </v>
   <v>       0.50000000       0.50000000       0.50000000 </v>
   <v>       0.49166667       0.49166667       0.51666667 </v>
   <v>       0.48333333       0.48333333       0.53333333 </v>
   <v>       0.47500000       0.47500000       0.55000000 </v>
   <v>       0.46666667       0.46666667       0.56666667 </v>
   <v>       0.45833333       0.45833333       0.58333333 </v>
   <v>       0.45000000       0.45000000       0.60000000 </v>
   <v>       0.44166667       0.44166667       0.61666667 </v>
   <v>       0.43333333       0.43333333       0.63333333 </v>
   <v>       0.42500000       0.42500000       0.65000000 </v>
   <v>       0.41666667       0.41666667       0.66666667 </v>
   <v>       0.40833333       0.40833333       0.68333333 </v>
   <v>       0.40000000       0.40000000       0.70000000 </v>
   <v>       0.39166667       0.39166667       0.71666667 </v>
   <v>       0.38333333       0.38333333       0.73333333 </v>
   <v>       0.37500000       0.37500000       0.75000000 </v>
   <v>       0.62500000       0.25000000       0.62500000 </v>
   <v>       0.61111111       0.22222222       0.61111111 </v>
   <v>       0.59722222       0.19444444       0.59722222 </v>
   <v>       0.58333333       0.16666667       0.58333333 </v>
   <v>       0.56944444       0.13888889       0.56944444 </v>
   <v>       0.55555556       0.11111111       0.55555556 </v>
   <v>       0.54166667       0.08333333       0.54166667 </v>
   <v>       0.52777778       0.05555556       0.52777778 </v>
   <v>       0.51388889       0.02777778       0.51388889 </v>
   <v>       0.50000000       0.00000000       0.50000000 </v>
  </varray>
  <varray name="weights" >
   <v>       0.00609756 </v>
   <v>       0.00609756 </v>
   <v>       0.00609756 </v>
   <v>       0.00609756 </v>
   <v>       0.00609756 </v>
   <v>       0.00609756 </v>
   <v>       0.00609756 </v>
   <v>       0.00609756 </v>
   <v>       0.00609756 </v>
   <v>       0.00609756 </v>
   <v>       0.00609756 </v>
   <v>       0.00609756 </v>
   <v>       0.00609756 </v>
   <v>       0.00609756 </v>
   <v>       0.00609756 </v>
   <v>       0.00609756 </v>
   <v>       0.00609756 </v>
   <v>       0.00609756 </v>
   <v>       0.00609756 </v>
   <v>       0.00609756 </v>
   <v>       0.00609756 </v>
   <v>       0.00609756 </v>
   <v>       0.00609756 </v>
   <v>       0.00609756 </v>
   <v>       0.00609756 </v>
   <v>       0.00609756 </v>
   <v>       0.00609756 </v>
   <v>       0.00609756 </v>
   <v>       0.00609756 </v>
   <v>       0.00609756 </v>
   <v>       0.00609756 </v>
   <v>       0.00609756 </v>
   <v>       0.00609756 </v>
   <v>       0.00609756 </v>
   <v>       0.00609756 </v>
   <v>       0.00609756 </v>
   <v>       0.00609756 </v>
   <v>       0.00609756 </v>
   <v>       0.00609756 </v>
   <v>       0.00609756 </v>
   <v>       0.00609756 </v>
   <v>       0.00609756 </v>
   <v>       0.00609756 </v>
   <v>       0.00609756 </v>
   <v>       0.00609756 </v>
   <v>       0.00609756 </v>
   <v>       0.00609756 </v>
   <v>       0.00609756 </v>
   <v>       0.00609756 </v>
   <v>       0.00609756 </v>
   <v>       0.00609756 </v>
   <v>       0.00609756 </v>
   <v>       0.00609756 </v>
   <v>       0.00609756 </v>
   <v>       0.00609756 </v>
   <v>       0.00609756 </v>
   <v>       0.00609756 </v>
   <v>       0.00609756 </v>
   <v>       0.00609756 </v>
   <v>       0.00609756 </v>
   <v>       0.00609756 </v>
   <v>       0.00609756 </v>
   <v>       0.00609756 </v>
   <v>       0.00609756 </v>
   <v>       0.00609756 </v>
   <v>       0.00609756 </v>
   <v>       0.00609756 </v>
   <v>       0.00609756 </v>
   <v>       0.00609756 </v>
   <v>       0.00609756 </v>
   <v>       0.00609756 </v>
   <v>       0.00609756 </v>
   <v>       0.00609756 </v>
   <v>       0.00609756 </v>
   <v>       0.00609756 </v>
   <v>       0.00609756 </v>
   <v>       0.00609756 </v>
   <v>       0.00609756 </v>
   <v>       0.00609756 </v>
   <v>       0.00609756 </v>
   <v>       0.00609756 </v>
   <v>       0.00609756 </v>
   <v>       0.00609756 </v>
   <v>       0.00609756 </v>
   <v>       0.00609756 </v>
   <v>       0.00609756 </v>
   <v>       0.00609756 </v>
   <v>       0.00609756 </v>
   <v>       0.00609756 </v>
   <v>       0.00609756 </v>
   <v>       0.00609756 </v>
   <v>       0.00609756 </v>
   <v>       0.00609756 </v>
   <v>       0.00609756 </v>
   <v>       0.00609756 </v>
   <v>       0.00609756 </v>
   <v>       0.00609756 </v>
   <v>       0.00609756 </v>
   <v>       0.00609756 </v>
   <v>       0.00609756 </v>
   <v>       0.00609756 </v>
   <v>       0.00609756 </v>
   <v>       0.00609756 </v>
   <v>       0.00609756 </v>
   <v>       0.00609756 </v>
   <v>       0.00609756 </v>
   <v>       0.00609756 </v>
   <v>       0.00609756 </v>
   <v>       0.00609756 </v>
   <v>       0.00609756 </v>
   <v>       0.00609756 </v>
   <v>       0.00609756 </v>
   <v>       0.00609756 </v>
   <v>       0.00609756 </v>
   <v>       0.00609756 </v>
   <v>       0.00609756 </v>
   <v>       0.00609756 </v>
   <v>       0.00609756 </v>
   <v>       0.00609756 </v>
   <v>       0.00609756 </v>
   <v>       0.00609756 </v>
   <v>       0.00609756 </v>
   <v>       0.00609756 </v>
   <v>       0.00609756 </v>
   <v>       0.00609756 </v>
   <v>       0.00609756 </v>
   <v>       0.00609756 </v>
   <v>       0.00609756 </v>
   <v>       0.00609756 </v>
   <v>       0.00609756 </v>
   <v>       0.00609756 </v>
   <v>       0.00609756 </v>
   <v>       0.00609756 </v>
   <v>       0.00609756 </v>
   <v>       0.00609756 </v>
   <v>       0.00609756 </v>
   <v>       0.00609756 </v>
   <v>       0.00609756 </v>
   <v>       0.00609756 </v>
   <v>       0.00609756 </v>
   <v>       0.00609756 </v>
   <v>       0.00609756 </v>
   <v>       0.00609756 </v>
   <v>       0.00609756 </v>
   <v>       0.00609756 </v>
   <v>       0.00609756 </v>
   <v>       0.00609756 </v>
   <v>       0.00609756 </v>
   <v>       0.00609756 </v>
   <v>       0.00609756 </v>
   <v>       0.00609756 </v>
   <v>       0.00609756 </v>
   <v>       0.00609756 </v>
   <v>       0.00609756 </v>
   <v>       0.00609756 </v>
   <v>       0.00609756 </v>
   <v>       0.00609756 </v>
   <v>       0.00609756 </v>
   <v>       0.00609756 </v>
   <v>       0.00609756 </v>
   <v>       0.00609756 </v>
   <v>       0.00609756 </v>
   <v>       0.00609756 </v>
   <v>       0.00609756 </v>
  </varray>
  <kpoints_labels>
   <i name="\Gamma" type="int">       1 </i>
   <i name="X" type="int">      24 </i>
   <i name="X" type="int">      25 </i>
   <i name="W" type="int">      37 </i>
   <i name="W" type="int">      38 </i>
   <i name="K" type="int">      47 </i>
   <i name="K" type="int">      48 </i>
   <i name="\Gamma" type="int">      73 </i>
   <i name="\Gamma" type="int">      74 </i>
   <i name="L" type="int">      94 </i>
   <i name="L" type="int">      95 </i>
   <i name="U" type="int">     110 </i>
   <i name="U" type="int">     111 </i>
   <i name="W" type="int">     120 </i>
   <i name="W" type="int">     121 </i>
   <i name="L" type="int">     138 </i>
   <i name="L" type="int">     139 </i>
   <i name="K" type="int">     154 </i>
   <i name="U" type="int">     155 </i>
   <i name="X" type="int">     164 </i>
  </kpoints_labels>
 </kpoints>
 <parameters>
  <separator name="general" >
   <i type="string" name="SYSTEM">unknown system</i>
   <i type="logical" name="LCOMPAT"> F  </i>
  </separator>
  <separator name="electronic" >
   <i type="string" name="PREC">accura</i>
   <i name="ENMAX">    520.00000000</i>
   <i name="ENAUG">    322.06900000</i>
   <i name="EDIFF">      0.00010000</i>
   <i type="int" name="IALGO">    68</i>
   <i type="int" name="IWAVPR">    10</i>
   <i type="int" name="NBANDS">    64</i>
   <i type="int" name="NBANDSLOW">    -1</i>
   <i type="int" name="NBANDSHIGH">    -1</i>
   <i name="NELECT">      8.00000000</i>
   <i type="int" name="TURBO">     0</i>
   <i type="int" name="IRESTART">     0</i>
   <i type="int" name="NREBOOT">     0</i>
   <i type="int" name="NMIN">     0</i>
   <i name="EREF">      0.00000000</i>
   <separator name="electronic smearing" >
    <i type="int" name="ISMEAR">     0</i>
    <i name="SIGMA">      0.01000000</i>
    <i name="KSPACING">      0.50000000</i>
    <i type="logical" name="KGAMMA"> T  </i>
    <i type="logical" name="KBLOWUP"> T  </i>
   </separator>
   <separator name="electronic projectors" >
    <i type="logical" name="LREAL"> F  </i>
    <v name="ROPT">      0.00000000</v>
    <i type="int" name="LMAXPAW">  -100</i>
    <i type="int" name="LMAXMIX">     2</i>
    <i type="logical" name="NLSPLINE"> F  </i>
   </separator>
   <separator name="electronic startup" >
    <i type="int" name="ISTART">     0</i>
    <i type="int" name="ICHARG">    11</i>
    <i type="int" name="INIWAV">     1</i>
   </separator>
   <separator name="electronic spin" >
    <i type="int" name="ISPIN">     1</i>
    <i type="logical" name="LNONCOLLINEAR"> F  </i>
    <v name="MAGMOM">      1.00000000      1.00000000</v>
    <i name="NUPDOWN">     -1.00000000</i>
    <i type="logical" name="LSORBIT"> F  </i>
    <v name="SAXIS">      0.00000000      0.00000000      1.00000000</v>
    <i type="logical" name="LSPIRAL"> F  </i>
    <v name="QSPIRAL">      0.00000000      0.00000000      0.00000000</v>
    <i type="logical" name="LZEROZ"> F  </i>
   </separator>
   <separator name="electronic exchange-correlation" >
    <i type="logical" name="LASPH"> T  </i>
    <i type="logical" name="LMETAGGA"> F  </i>
   </separator>
   <separator name="electronic convergence" >
    <i type="int" name="NELM">    60</i>
    <i type="int" name="NELMDL">    -5</i>
    <i type="int" name="NELMIN">     5</i>
    <i name="ENINI">    520.00000000</i>
    <separator name="electronic convergence detail" >
     <i type="logical" name="LDIAG"> T  </i>
     <i type="logical" name="LSUBROT"> F  </i>
     <i name="WEIMIN">      0.00000000</i>
     <i name="EBREAK">      0.00000039</i>
     <i name="DEPER">      0.30000000</i>
     <i type="int" name="NRMM">     4</i>
     <i name="TIME">      0.40000000</i>
    </separator>
   </separator>
   <separator name="electronic mixer" >
    <i name="AMIX">      0.40000000</i>
    <i name="BMIX">      1.00000000</i>
    <i name="AMIN">      0.10000000</i>
    <i name="AMIX_MAG">      1.60000000</i>
    <i name="BMIX_MAG">      1.00000000</i>
    <separator name="electronic mixer details" >
     <i type="int" name="IMIX">     4</i>
     <i type="logical" name="MIXFIRST"> F  </i>
     <i type="int" name="MAXMIX">   -45</i>
     <i name="WC">    100.00000000</i>
     <i type="int" name="INIMIX">     1</i>
     <i type="int" name="MIXPRE">     1</i>
     <i type="int" name="MREMOVE">     5</i>
    </separator>
   </separator>
   <separator name="electronic dipolcorrection" >
    <i type="logical" name="LDIPOL"> F  </i>
    <i type="logical" name="LMONO"> F  </i>
    <i type="int" name="IDIPOL">     0</i>
    <i name="EPSILON">      1.00000000</i>
    <v name="DIPOL">   -100.00000000   -100.00000000   -100.00000000</v>
    <i name="EFIELD">      0.00000000</i>
   </separator>
  </separator>
  <separator name="grids" >
   <i type="int" name="NGX">    30</i>
   <i type="int" name="NGY">    30</i>
   <i type="int" name="NGZ">    30</i>
   <i type="int" name="NGXF">    60</i>
   <i type="int" name="NGYF">    60</i>
   <i type="int" name="NGZF">    60</i>
   <i type="logical" name="ADDGRID"> F  </i>
  </separator>
  <separator name="ionic" >
   <i type="int" name="NSW">     0</i>
   <i type="int" name="IBRION">    -1</i>
   <i type="int" name="MDALGO">     0</i>
   <i type="int" name="ISIF">     2</i>
   <i name="PSTRESS">      0.00000000</i>
   <i name="EDIFFG">      0.00100000</i>
   <i type="int" name="NFREE">     0</i>
   <i name="POTIM">      0.50000000</i>
   <i name="SMASS">     -3.00000000</i>
   <i name="SCALEE">      1.00000000</i>
  </separator>
  <separator name="ionic md" >
   <i name="TEBEG">      0.00010000</i>
   <i name="TEEND">      0.00010000</i>
   <i type="int" name="NBLOCK">     1</i>
   <i type="int" name="KBLOCK">     1</i>
   <i type="int" name="NPACO">   256</i>
   <i name="APACO">     10.00000000</i>
  </separator>
  <separator name="symmetry" >
   <i type="int" name="ISYM">     0</i>
   <i name="SYMPREC">      0.00001000</i>
  </separator>
  <separator name="dos" >
   <i type="int" name="LORBIT">    11</i>
   <v name="RWIGS">     -1.00000000</v>
   <i type="int" name="NEDOS">   301</i>
   <i name="EMIN">     10.00000000</i>
   <i name="EMAX">    -10.00000000</i>
   <i name="EFERMI">      0.00000000</i>
  </separator>
  <separator name="writing" >
   <i type="int" name="NWRITE">     2</i>
   <i type="logical" name="LWAVE"> F  </i>
   <i type="logical" name="LDOWNSAMPLE"> F  </i>
   <i type="logical" name="LCHARG"> F  </i>
   <i type="logical" name="LPARD"> F  </i>
   <i type="logical" name="LVTOT"> F  </i>
   <i type="logical" name="LVHAR"> F  </i>
   <i type="logical" name="LELF"> F  </i>
   <i type="logical" name="LOPTICS"> F  </i>
   <v name="STM">      0.00000000      0.00000000      0.00000000      0.00000000      0.00000000      0.00000000      0.00000000</v>
  </separator>
  <separator name="performance" >
   <i type="int" name="NPAR">    32</i>
   <i type="int" name="NSIM">     4</i>
   <i type="int" name="NBLK">    -1</i>
   <i type="logical" name="LPLANE"> T  </i>
   <i type="logical" name="LSCALAPACK"> T  </i>
   <i type="logical" name="LSCAAWARE"> T  </i>
   <i type="logical" name="LSCALU"> F  </i>
   <i type="logical" name="LASYNC"> F  </i>
   <i type="logical" name="LORBITALREAL"> F  </i>
  </separator>
  <separator name="miscellaneous" >
   <i type="int" name="IDIOT">     3</i>
   <i type="int" name="PHON_NSTRUCT">    -1</i>
   <i type="logical" name="LMUSIC"> F  </i>
   <v name="POMASS">     28.08500000</v>
   <v name="DARWINR">      0.00000000</v>
   <v name="DARWINV">      1.00000000</v>
   <i type="logical" name="LCORR"> T  </i>
  </separator>
  <i type="logical" name="GGA_COMPAT"> T  </i>
  <i type="logical" name="LBERRY"> F  </i>
  <i type="int" name="ICORELEVEL">     0</i>
  <i type="logical" name="LDAU"> F  </i>
  <i type="int" name="I_CONSTRAINED_M">     0</i>
  <separator name="electronic exchange-correlation" >
   <i type="string" name="GGA">--</i>
   <i type="int" name="VOSKOWN">     0</i>
   <i type="logical" name="LHFCALC"> F  </i>
   <i type="string" name="PRECFOCK"></i>
   <i type="logical" name="LSYMGRAD"> F  </i>
   <i type="logical" name="LHFONE"> F  </i>
   <i type="logical" name="LRHFCALC"> F  </i>
   <i type="logical" name="LTHOMAS"> F  </i>
   <i type="logical" name="LMODELHF"> F  </i>
   <i type="logical" name="LFOCKACE"> F  </i>
   <i name="ENCUT4O">     -1.00000000</i>
   <i type="int" name="EXXOEP">     0</i>
   <i type="int" name="FOURORBIT">     0</i>
   <i name="AEXX">      0.00000000</i>
   <i name="HFALPHA">      0.00000000</i>
   <i name="MCALPHA">      0.00000000</i>
   <i name="ALDAX">      1.00000000</i>
   <i name="AGGAX">      1.00000000</i>
   <i name="ALDAC">      1.00000000</i>
   <i name="AGGAC">      1.00000000</i>
   <i type="int" name="NKREDX">     1</i>
   <i type="int" name="NKREDY">     1</i>
   <i type="int" name="NKREDZ">     1</i>
   <i type="logical" name="SHIFTRED"> F  </i>
   <i type="logical" name="ODDONLY"> F  </i>
   <i type="logical" name="EVENONLY"> F  </i>
   <i type="int" name="LMAXFOCK">     0</i>
   <i type="int" name="NMAXFOCKAE">     0</i>
   <i type="logical" name="LFOCKAEDFT"> F  </i>
   <i name="HFSCREEN">      0.00000000</i>
   <i name="HFSCREENC">      0.00000000</i>
   <i type="int" name="NBANDSGWLOW">     0</i>
  </separator>
  <separator name="vdW DFT" >
   <i type="logical" name="LUSE_VDW"> F  </i>
   <i name="Zab_VDW">     -0.84910000</i>
   <i name="PARAM1">      0.12340000</i>
   <i name="PARAM2">      1.00000000</i>
   <i name="PARAM3">      0.00000000</i>
  </separator>
  <separator name="model GW" >
   <i type="int" name="MODEL_GW">     0</i>
   <i name="MODEL_EPS0">     12.26990977</i>
   <i name="MODEL_ALPHA">      1.00000000</i>
  </separator>
  <separator name="linear response parameters" >
   <i type="logical" name="LEPSILON"> F  </i>
   <i type="logical" name="LRPA"> F  </i>
   <i type="logical" name="LNABLA"> F  </i>
   <i type="logical" name="LVEL"> F  </i>
   <i name="CSHIFT">      0.10000000</i>
   <i name="OMEGAMAX">     -1.00000000</i>
   <i name="DEG_THRESHOLD">      0.00200000</i>
   <i name="RTIME">     -0.10000000</i>
   <i name="WPLASMAI">      0.00000000</i>
   <v name="DFIELD">      0.00000000      0.00000000      0.00000000</v>
   <v name="WPLASMA">      0.00000000      0.00000000      0.00000000      0.00000000      0.00000000      0.00000000      0.00000000      0.00000000      0.00000000</v>
  </separator>
  <separator name="orbital magnetization" >
   <i type="logical" name="NUCIND"> F  </i>
   <v name="MAGPOS">      0.00000000      0.00000000      0.00000000</v>
   <i type="logical" name="LNICSALL"> T  </i>
   <i type="logical" name="ORBITALMAG"> F  </i>
   <i type="logical" name="LMAGBLOCH"> F  </i>
   <i type="logical" name="LCHIMAG"> F  </i>
   <i type="logical" name="LGAUGE"> T  </i>
   <i type="int" name="MAGATOM">     0</i>
   <v name="MAGDIPOL">      0.00000000      0.00000000      0.00000000</v>
   <v name="AVECCONST">      0.00000000      0.00000000      0.00000000</v>
  </separator>
  <separator name="response functions" >
   <i type="logical" name="LFINITE_TEMPERATURE"> F  </i>
   <i type="logical" name="LADDER"> F  </i>
   <i type="logical" name="LRPAFORCE"> F  </i>
   <i type="logical" name="LFXC"> F  </i>
   <i type="logical" name="LHARTREE"> T  </i>
   <i type="int" name="IBSE">     0</i>
   <v type="int" name="KPOINT">    -1     0     0     0</v>
   <i type="logical" name="LTCTC"> F  </i>
   <i type="logical" name="LTCTE"> F  </i>
   <i type="logical" name="LTETE"> F  </i>
   <i type="logical" name="LTRIPLET"> F  </i>
   <i type="logical" name="LFXCEPS"> F  </i>
   <i type="logical" name="LFXHEG"> F  </i>
   <i type="int" name="NATURALO">     2</i>
   <i type="logical" name="LHOLEGF"> F  </i>
   <i type="logical" name="L2ORDER"> F  </i>
   <i type="logical" name="LDMP1"> F  </i>
   <i type="logical" name="LMP2LT"> F  </i>
   <i type="logical" name="LSMP2LT"> F  </i>
   <i type="logical" name="LGWLF"> F  </i>
   <i name="ENCUTGW">     -2.00000000</i>
   <i name="ENCUTGWSOFT">     -2.00000000</i>
   <i name="ENCUTLF">     -1.00000000</i>
   <i type="logical" name="LESF_SPLINES"> F  </i>
   <i type="int" name="LMAXMP2">    -1</i>
   <i name="SCISSOR">      0.00000000</i>
   <i type="int" name="NOMEGA">     0</i>
   <i type="int" name="NOMEGAR">     0</i>
   <i type="int" name="NBANDSGW">    -1</i>
   <i type="int" name="NBANDSO">    -1</i>
   <i type="int" name="NBANDSV">    -1</i>
   <i type="int" name="NELMGW">     1</i>
   <i type="int" name="NELMHF">     1</i>
   <i type="int" name="DIM">     3</i>
   <i type="int" name="IESPILON">     4</i>
   <i type="int" name="ANTIRES">     0</i>
   <i name="OMEGAMAX">    -30.00000000</i>
   <i name="OMEGAMIN">    -30.00000000</i>
   <i name="OMEGATL">   -200.00000000</i>
   <i type="int" name="OMEGAGRID">     0</i>
   <i name="CSHIFT">     -0.10000000</i>
   <i type="logical" name="LSELFENERGY"> F  </i>
   <i type="logical" name="LSPECTRAL"> F  </i>
   <i type="logical" name="LSPECTRALGW"> F  </i>
   <i type="logical" name="LSINGLES"> F  </i>
   <i type="logical" name="LFERMIGW"> F  </i>
   <i type="logical" name="ODDONLYGW"> F  </i>
   <i type="logical" name="EVENONLYGW"> F  </i>
   <i type="int" name="NKREDLFX">     1</i>
   <i type="int" name="NKREDLFY">     1</i>
   <i type="int" name="NKREDLFZ">     1</i>
   <i type="int" name="MAXMEM">  2800</i>
   <i type="int" name="TELESCOPE">     0</i>
   <i type="int" name="NTAUPAR">    -1</i>
   <i type="int" name="NOMEGAPAR">    -1</i>
   <i name="DAMP_NEWTON">      0.80000001</i>
   <i name="LAMBDA">      1.00000000</i>
  </separator>
  <separator name="External order field" >
   <i name="OFIELD_KAPPA">      0.00000000</i>
   <v name="OFIELD_K">      0.00000000      0.00000000      0.00000000</v>
   <i name="OFIELD_Q6_NEAR">      0.00000000</i>
   <i name="OFIELD_Q6_FAR">      0.00000000</i>
   <i name="OFIELD_A">      0.00000000</i>
  </separator>
  <separator name="optional k-points parameters" >
   <i type="int" name="KPOINTS_OPT_MODE">     1</i>
   <i type="logical" name="LKPOINTS_OPT"> F  </i>
  </separator>
  <separator name="solvation model" >
   <i type="logical" name="LSOL"> F  </i>
  </separator>
 </parameters>
 <atominfo>
  <atoms>       2 </atoms>
  <types>       1 </types>
  <array name="atoms" >
   <dimension dim="1">ion</dimension>
   <field type="string">element</field>
   <field type="int">atomtype</field>
   <set>
    <rc><c>Si</c><c>   1</c></rc>
    <rc><c>Si</c><c>   1</c></rc>
   </set>
  </array>
  <array name="atomtypes" >
   <dimension dim="1">type</dimension>
   <field type="int">atomspertype</field>
   <field type="string">element</field>
   <field>mass</field>
   <field>valence</field>
   <field type="string">pseudopotential</field>
   <set>
    <rc><c>   2</c><c>Si</c><c>     28.08500000</c><c>      4.00000000</c><c>  PAW_PBE Si 05Jan2001                  </c></rc>
   </set>
  </array>
 </atominfo>
 <structure name="initialpos" >
  <crystal>
   <varray name="basis" >
    <v>       0.00000000       2.73461824       2.73461824 </v>
    <v>       2.73461824       0.00000000       2.73461824 </v>
    <v>       2.73461824       2.73461824       0.00000000 </v>
   </varray>
   <i name="volume">     40.89969924 </i>
   <varray name="rec_basis" >
    <v>      -0.18284088       0.18284088       0.18284088 </v>
    <v>       0.18284088      -0.18284088       0.18284088 </v>
    <v>       0.18284088       0.18284088      -0.18284088 </v>
   </varray>
  </crystal>
  <varray name="positions" >
   <v>       0.25000000       0.25000000       0.25000000 </v>
   <v>       0.00000000       0.00000000       0.00000000 </v>
  </varray>
 </structure>
 <calculation>
  <scstep>
   <time name="dav">    4.46    4.53</time>
   <time name="total">    4.57    4.65</time>
   <energy>
    <i name="alphaZ">      3.29226194 </i>
    <i name="ewald">   -226.92380278 </i>
    <i name="hartreedc">    -15.18631997 </i>
    <i name="XCdc">    -18.05999775 </i>
    <i name="pawpsdc">    833.93575160 </i>
    <i name="pawaedc">   -798.95484789 </i>
    <i name="eentropy">     -0.00008760 </i>
    <i name="bandstr">     21.34555788 </i>
    <i name="atom">    206.13270273 </i>
    <i name="e_fr_energy">      5.58121817 </i>
    <i name="e_wo_entrp">      5.58130577 </i>
    <i name="e_0_energy">      5.58126197 </i>
   </energy>
  </scstep>
  <scstep>
   <time name="dav">    7.77    7.80</time>
   <time name="total">    7.77    7.80</time>
   <energy>
    <i name="e_fr_energy">     -9.57996060 </i>
    <i name="e_wo_entrp">     -9.57996060 </i>
    <i name="e_0_energy">     -9.57996060 </i>
   </energy>
  </scstep>
  <scstep>
   <time name="dav">    4.61    4.62</time>
   <time name="total">    4.62    4.62</time>
   <energy>
    <i name="e_fr_energy">     -9.72188115 </i>
    <i name="e_wo_entrp">     -9.72188115 </i>
    <i name="e_0_energy">     -9.72188115 </i>
   </energy>
  </scstep>
  <scstep>
   <time name="dav">    7.74    9.35</time>
   <time name="total">    7.74    9.35</time>
   <energy>
    <i name="e_fr_energy">     -9.72196406 </i>
    <i name="e_wo_entrp">     -9.72196406 </i>
    <i name="e_0_energy">     -9.72196406 </i>
   </energy>
  </scstep>
  <scstep>
   <time name="dav">    3.75    3.75</time>
   <time name="total">    3.75    3.76</time>
   <energy>
    <i name="e_fr_energy">     -9.72196416 </i>
    <i name="e_wo_entrp">     -9.72196416 </i>
    <i name="e_0_energy">     -9.72196416 </i>
   </energy>
  </scstep>
  <scstep>
   <time name="diag">    0.93    0.93</time>
   <time name="diis">    0.43    0.43</time>
   <time name="orth">    0.20    0.21</time>
   <time name="total">    1.56    1.57</time>
   <energy>
    <i name="alphaZ">      3.29226194 </i>
    <i name="ewald">   -226.92380278 </i>
    <i name="hartreedc">    -15.18631997 </i>
    <i name="XCdc">    -18.05999775 </i>
    <i name="pawpsdc">    833.93575160 </i>
    <i name="pawaedc">   -798.95484789 </i>
    <i name="eentropy">     -0.00000000 </i>
    <i name="bandstr">      6.04228794 </i>
    <i name="atom">    206.13270273 </i>
    <i name="e_fr_energy">     -9.72196417 </i>
    <i name="e_wo_entrp">     -9.72196417 </i>
    <i name="e_0_energy">     -9.72196417 </i>
   </energy>
  </scstep>
  <structure>
   <crystal>
    <varray name="basis" >
     <v>       0.00000000       2.73461824       2.73461824 </v>
     <v>       2.73461824       0.00000000       2.73461824 </v>
     <v>       2.73461824       2.73461824       0.00000000 </v>
    </varray>
    <i name="volume">     40.89969924 </i>
    <varray name="rec_basis" >
     <v>      -0.18284088       0.18284088       0.18284088 </v>
     <v>       0.18284088      -0.18284088       0.18284088 </v>
     <v>       0.18284088       0.18284088      -0.18284088 </v>
    </varray>
   </crystal>
   <varray name="positions" >
    <v>       0.25000000       0.25000000       0.25000000 </v>
    <v>       0.00000000       0.00000000       0.00000000 </v>
   </varray>
  </structure>
  <varray name="forces" >
   <v>      -0.02859043       0.04639018       0.29608735 </v>
   <v>       0.02859043      -0.04639018      -0.29608735 </v>
  </varray>
  <varray name="stress" >
   <v>      10.00667824     -41.90387236     -57.13898206 </v>
   <v>     -41.90387401      34.00514932     -38.66512244 </v>
   <v>     -57.13898212     -38.66512148      79.89952701 </v>
  </varray>
  <energy>
   <i name="e_fr_energy">     -9.72196417 </i>
   <i name="e_wo_entrp">     -9.72196417 </i>
   <i name="e_0_energy">     -9.72196417 </i>
  </energy>
  <time name="totalsc">   30.82   33.14</time>
  <eigenvalues>
   <array>
    <dimension dim="1">band</dimension>
    <dimension dim="2">kpoint</dimension>
    <dimension dim="3">spin</dimension>
    <field>eigene</field>
    <field>occ</field>
    <set>
     <set comment="spin 1">
      <set comment="kpoint 1">
       <r>   -6.1984    1.0000 </r>
       <r>    5.6147    1.0000 </r>
       <r>    5.6147    1.0000 </r>
       <r>    5.6147    1.0000 </r>
       <r>    8.1711    0.0000 </r>
       <r>    8.1711    0.0000 </r>
       <r>    8.1711    0.0000 </r>
       <r>    8.7452    0.0000 </r>
       <r>   13.3233    0.0000 </r>
       <r>   13.3233    0.0000 </r>
       <r>   13.4884    0.0000 </r>
       <r>   16.7949    0.0000 </r>
       <r>   16.7949    0.0000 </r>
       <r>   16.7949    0.0000 </r>
       <r>   20.8823    0.0000 </r>
       <r>   28.4651    0.0000 </r>
       <r>   28.4651    0.0000 </r>
       <r>   28.4651    0.0000 </r>
       <r>   29.5462    0.0000 </r>
       <r>   29.5462    0.0000 </r>
       <r>   30.9912    0.0000 </r>
       <r>   30.9912    0.0000 </r>
       <r>   30.9912    0.0000 </r>
       <r>   34.5223    0.0000 </r>
       <r>   34.5223    0.0000 </r>
       <r>   34.5223    0.0000 </r>
       <r>   40.1037    0.0000 </r>
       <r>   40.1037    0.0000 </r>
       <r>   40.1037    0.0000 </r>
       <r>   43.4043    0.0000 </r>
       <r>   43.8795    0.0000 </r>
       <r>   43.8795    0.0000 </r>
       <r>   45.7732    0.0000 </r>
       <r>   45.7732    0.0000 </r>
       <r>   47.2654    0.0000 </r>
       <r>   47.2654    0.0000 </r>
       <r>   47.2654    0.0000 </r>
       <r>   49.0150    0.0000 </r>
       <r>   49.0150    0.0000 </r>
       <r>   49.0150    0.0000 </r>
       <r>   49.4723    0.0000 </r>
       <r>   50.0812    0.0000 </r>
       <r>   50.0812    0.0000 </r>
       <r>   50.0812    0.0000 </r>
       <r>   50.0839    0.0000 </r>
       <r>   50.0839    0.0000 </r>
       <r>   50.0839    0.0000 </r>
       <r>   51.5043    0.0000 </r>
       <r>   51.5043    0.0000 </r>
       <r>   51.5043    0.0000 </r>
       <r>   55.3516    0.0000 </r>
       <r>   56.5236    0.0000 </r>
       <r>   56.5236    0.0000 </r>
       <r>   56.5236    0.0000 </r>
       <r>   56.8070    0.0000 </r>
       <r>   56.8070    0.0000 </r>
       <r>   56.8070    0.0000 </r>
       <r>   61.6095    0.0000 </r>
       <r>   62.4658    0.0000 </r>
       <r>   71.2504    0.0000 </r>
       <r>   71.2504    0.0000 </r>
       <r>   74.2612    0.0000 </r>
       <r>   74.2612    0.0000 </r>
       <r>   74.2613    0.0000 </r>
      </set>
      <set comment="kpoint 2">
       <r>   -6.1903    1.0000 </r>
       <r>    5.5559    1.0000 </r>
       <r>    5.5801    1.0000 </r>
       <r>    5.5801    1.0000 </r>
       <r>    8.1509    0.0000 </r>
       <r>    8.2157    0.0000 </r>
       <r>    8.2157    0.0000 </r>
       <r>    8.8028    0.0000 </r>
       <r>   13.2565    0.0000 </r>
       <r>   13.3323    0.0000 </r>
       <r>   13.5247    0.0000 </r>
       <r>   16.8091    0.0000 </r>
       <r>   16.8091    0.0000 </r>
       <r>   16.8416    0.0000 </r>
       <r>   20.9417    0.0000 </r>
       <r>   28.3308    0.0000 </r>
       <r>   28.3308    0.0000 </r>
       <r>   28.4754    0.0000 </r>
       <r>   29.4396    0.0000 </r>
       <r>   29.4667    0.0000 </r>
       <r>   31.0469    0.0000 </r>
       <r>   31.0813    0.0000 </r>
       <r>   31.0813    0.0000 </r>
       <r>   34.5847    0.0000 </r>
       <r>   34.5847    0.0000 </r>
       <r>   34.6340    0.0000 </r>
       <r>   40.0445    0.0000 </r>
       <r>   40.0445    0.0000 </r>
       <r>   40.0451    0.0000 </r>
       <r>   43.4475    0.0000 </r>
       <r>   43.7341    0.0000 </r>
       <r>   43.8580    0.0000 </r>
       <r>   45.5516    0.0000 </r>
       <r>   45.7611    0.0000 </r>
       <r>   47.2569    0.0000 </r>
       <r>   47.2924    0.0000 </r>
       <r>   47.2924    0.0000 </r>
       <r>   48.7953    0.0000 </r>
       <r>   48.7953    0.0000 </r>
       <r>   49.0414    0.0000 </r>
       <r>   49.7286    0.0000 </r>
       <r>   49.7392    0.0000 </r>
       <r>   49.7392    0.0000 </r>
       <r>   50.1230    0.0000 </r>
       <r>   50.1923    0.0000 </r>
       <r>   50.2668    0.0000 </r>
       <r>   50.2668    0.0000 </r>
       <r>   51.5471    0.0000 </r>
       <r>   51.9421    0.0000 </r>
       <r>   51.9421    0.0000 </r>
       <r>   55.1329    0.0000 </r>
       <r>   55.9188    0.0000 </r>
       <r>   55.9188    0.0000 </r>
       <r>   56.7550    0.0000 </r>
       <r>   56.7675    0.0000 </r>
       <r>   57.4585    0.0000 </r>
       <r>   57.4585    0.0000 </r>
       <r>   61.7030    0.0000 </r>
       <r>   62.5203    0.0000 </r>
       <r>   70.7994    0.0000 </r>
       <r>   71.2563    0.0000 </r>
       <r>   74.2187    0.0000 </r>
       <r>   74.2188    0.0000 </r>
       <r>   74.4269    0.0000 </r>
      </set>
      <set comment="kpoint 3">
       <r>   -6.1660    1.0000 </r>
       <r>    5.3918    1.0000 </r>
       <r>    5.4831    1.0000 </r>
       <r>    5.4831    1.0000 </r>
       <r>    8.0921    0.0000 </r>
       <r>    8.3427    0.0000 </r>
       <r>    8.3427    0.0000 </r>
       <r>    8.9617    0.0000 </r>
       <r>   13.0729    0.0000 </r>
       <r>   13.3593    0.0000 </r>
       <r>   13.6319    0.0000 </r>
       <r>   16.8517    0.0000 </r>
       <r>   16.8517    0.0000 </r>
       <r>   16.9687    0.0000 </r>
       <r>   21.1182    0.0000 </r>
       <r>   27.9823    0.0000 </r>
       <r>   27.9823    0.0000 </r>
       <r>   28.5067    0.0000 </r>
       <r>   29.1453    0.0000 </r>
       <r>   29.2582    0.0000 </r>
       <r>   31.1843    0.0000 </r>
       <r>   31.2970    0.0000 </r>
       <r>   31.2970    0.0000 </r>
       <r>   34.7721    0.0000 </r>
       <r>   34.7721    0.0000 </r>
       <r>   34.9430    0.0000 </r>
       <r>   39.8701    0.0000 </r>
       <r>   39.8701    0.0000 </r>
       <r>   39.8761    0.0000 </r>
       <r>   43.3315    0.0000 </r>
       <r>   43.5569    0.0000 </r>
       <r>   43.7952    0.0000 </r>
       <r>   45.0363    0.0000 </r>
       <r>   45.7271    0.0000 </r>
       <r>   47.2271    0.0000 </r>
       <r>   47.3637    0.0000 </r>
       <r>   47.3637    0.0000 </r>
       <r>   48.2880    0.0000 </r>
       <r>   48.2880    0.0000 </r>
       <r>   49.1104    0.0000 </r>
       <r>   49.2190    0.0000 </r>
       <r>   49.2190    0.0000 </r>
       <r>   50.2387    0.0000 </r>
       <r>   50.3712    0.0000 </r>
       <r>   50.4924    0.0000 </r>
       <r>   50.6476    0.0000 </r>
       <r>   50.6476    0.0000 </r>
       <r>   51.6739    0.0000 </r>
       <r>   52.7723    0.0000 </r>
       <r>   52.7723    0.0000 </r>
       <r>   54.7103    0.0000 </r>
       <r>   55.2406    0.0000 </r>
       <r>   55.2406    0.0000 </r>
       <r>   56.6136    0.0000 </r>
       <r>   57.2713    0.0000 </r>
       <r>   58.2777    0.0000 </r>
       <r>   58.2777    0.0000 </r>
       <r>   61.9700    0.0000 </r>
       <r>   62.6815    0.0000 </r>
       <r>   69.7696    0.0000 </r>
       <r>   71.2737    0.0000 </r>
       <r>   74.0652    0.0000 </r>
       <r>   74.0652    0.0000 </r>
       <r>   74.6782    0.0000 </r>
      </set>
      <set comment="kpoint 4">
       <r>   -6.1254    1.0000 </r>
       <r>    5.1489    1.0000 </r>
       <r>    5.3395    1.0000 </r>
       <r>    5.3395    1.0000 </r>
       <r>    7.9996    0.0000 </r>
       <r>    8.5363    0.0000 </r>
       <r>    8.5363    0.0000 </r>
       <r>    9.1898    0.0000 </r>
       <r>   12.8117    0.0000 </r>
       <r>   13.4045    0.0000 </r>
       <r>   13.8049    0.0000 </r>
       <r>   16.9226    0.0000 </r>
       <r>   16.9226    0.0000 </r>
       <r>   17.1477    0.0000 </r>
       <r>   21.4058    0.0000 </r>
       <r>   27.5103    0.0000 </r>
       <r>   27.5103    0.0000 </r>
       <r>   28.5594    0.0000 </r>
       <r>   28.7177    0.0000 </r>
       <r>   28.9698    0.0000 </r>
       <r>   31.3542    0.0000 </r>
       <r>   31.5489    0.0000 </r>
       <r>   31.5489    0.0000 </r>
       <r>   35.0826    0.0000 </r>
       <r>   35.0826    0.0000 </r>
       <r>   35.3934    0.0000 </r>
       <r>   39.5884    0.0000 </r>
       <r>   39.5884    0.0000 </r>
       <r>   39.6112    0.0000 </r>
       <r>   42.7427    0.0000 </r>
       <r>   43.6267    0.0000 </r>
       <r>   43.6959    0.0000 </r>
       <r>   44.5083    0.0000 </r>
       <r>   45.6781    0.0000 </r>
       <r>   47.1704    0.0000 </r>
       <r>   47.4181    0.0000 </r>
       <r>   47.4181    0.0000 </r>
       <r>   47.6684    0.0000 </r>
       <r>   47.6684    0.0000 </r>
       <r>   48.8196    0.0000 </r>
       <r>   48.8196    0.0000 </r>
       <r>   49.2179    0.0000 </r>
       <r>   50.4261    0.0000 </r>
       <r>   50.9013    0.0000 </r>
       <r>   51.0912    0.0000 </r>
       <r>   51.0912    0.0000 </r>
       <r>   51.2085    0.0000 </r>
       <r>   51.8797    0.0000 </r>
       <r>   53.7049    0.0000 </r>
       <r>   53.7049    0.0000 </r>
       <r>   54.2712    0.0000 </r>
       <r>   54.6110    0.0000 </r>
       <r>   54.6110    0.0000 </r>
       <r>   56.4189    0.0000 </r>
       <r>   57.8685    0.0000 </r>
       <r>   59.1463    0.0000 </r>
       <r>   59.1463    0.0000 </r>
       <r>   62.3784    0.0000 </r>
       <r>   62.9424    0.0000 </r>
       <r>   68.5123    0.0000 </r>
       <r>   71.3020    0.0000 </r>
       <r>   73.7296    0.0000 </r>
       <r>   73.7300    0.0000 </r>
       <r>   74.8662    0.0000 </r>
      </set>
      <set comment="kpoint 5">
       <r>   -6.0686    1.0000 </r>
       <r>    4.8533    1.0000 </r>
       <r>    5.1660    1.0000 </r>
       <r>    5.1660    1.0000 </r>
       <r>    7.8805    0.0000 </r>
       <r>    8.7794    0.0000 </r>
       <r>    8.7794    0.0000 </r>
       <r>    9.4484    0.0000 </r>
       <r>   12.5196    0.0000 </r>
       <r>   13.4676    0.0000 </r>
       <r>   14.0363    0.0000 </r>
       <r>   17.0217    0.0000 </r>
       <r>   17.0217    0.0000 </r>
       <r>   17.3533    0.0000 </r>
       <r>   21.7943    0.0000 </r>
       <r>   26.9751    0.0000 </r>
       <r>   26.9751    0.0000 </r>
       <r>   28.2069    0.0000 </r>
       <r>   28.6338    0.0000 </r>
       <r>   28.6344    0.0000 </r>
       <r>   31.5245    0.0000 </r>
       <r>   31.7851    0.0000 </r>
       <r>   31.7851    0.0000 </r>
       <r>   35.5067    0.0000 </r>
       <r>   35.5067    0.0000 </r>
       <r>   35.9319    0.0000 </r>
       <r>   39.2110    0.0000 </r>
       <r>   39.2110    0.0000 </r>
       <r>   39.2635    0.0000 </r>
       <r>   42.0331    0.0000 </r>
       <r>   43.3239    0.0000 </r>
       <r>   43.5665    0.0000 </r>
       <r>   44.3870    0.0000 </r>
       <r>   45.6237    0.0000 </r>
       <r>   46.8943    0.0000 </r>
       <r>   46.8943    0.0000 </r>
       <r>   47.0863    0.0000 </r>
       <r>   47.5304    0.0000 </r>
       <r>   47.5304    0.0000 </r>
       <r>   48.5847    0.0000 </r>
       <r>   48.5847    0.0000 </r>
       <r>   49.3611    0.0000 </r>
       <r>   50.6787    0.0000 </r>
       <r>   51.3120    0.0000 </r>
       <r>   51.5616    0.0000 </r>
       <r>   51.5616    0.0000 </r>
       <r>   52.1301    0.0000 </r>
       <r>   52.1576    0.0000 </r>
       <r>   53.9017    0.0000 </r>
       <r>   54.0350    0.0000 </r>
       <r>   54.0350    0.0000 </r>
       <r>   54.6860    0.0000 </r>
       <r>   54.6860    0.0000 </r>
       <r>   56.2145    0.0000 </r>
       <r>   58.5232    0.0000 </r>
       <r>   60.0606    0.0000 </r>
       <r>   60.0606    0.0000 </r>
       <r>   62.8922    0.0000 </r>
       <r>   63.2931    0.0000 </r>
       <r>   67.1722    0.0000 </r>
       <r>   71.3387    0.0000 </r>
       <r>   73.1680    0.0000 </r>
       <r>   73.1704    0.0000 </r>
       <r>   74.4960    0.0000 </r>
      </set>
      <set comment="kpoint 6">
       <r>   -5.9957    1.0000 </r>
       <r>    4.5239    1.0000 </r>
       <r>    4.9760    1.0000 </r>
       <r>    4.9760    1.0000 </r>
       <r>    7.7420    0.0000 </r>
       <r>    9.0586    0.0000 </r>
       <r>    9.0586    0.0000 </r>
       <r>    9.6931    0.0000 </r>
       <r>   12.2487    0.0000 </r>
       <r>   13.5488    0.0000 </r>
       <r>   14.3184    0.0000 </r>
       <r>   17.1484    0.0000 </r>
       <r>   17.1484    0.0000 </r>
       <r>   17.5710    0.0000 </r>
       <r>   22.2698    0.0000 </r>
       <r>   26.4092    0.0000 </r>
       <r>   26.4092    0.0000 </r>
       <r>   27.6477    0.0000 </r>
       <r>   28.2679    0.0000 </r>
       <r>   28.7336    0.0000 </r>
       <r>   31.6772    0.0000 </r>
       <r>   31.9889    0.0000 </r>
       <r>   31.9889    0.0000 </r>
       <r>   36.0269    0.0000 </r>
       <r>   36.0269    0.0000 </r>
       <r>   36.5188    0.0000 </r>
       <r>   38.7516    0.0000 </r>
       <r>   38.7516    0.0000 </r>
       <r>   38.8406    0.0000 </r>
       <r>   41.2478    0.0000 </r>
       <r>   42.7502    0.0000 </r>
       <r>   43.4143    0.0000 </r>
       <r>   44.6079    0.0000 </r>
       <r>   45.5765    0.0000 </r>
       <r>   46.2015    0.0000 </r>
       <r>   46.2015    0.0000 </r>
       <r>   46.9779    0.0000 </r>
       <r>   47.4366    0.0000 </r>
       <r>   47.4366    0.0000 </r>
       <r>   48.5534    0.0000 </r>
       <r>   48.5534    0.0000 </r>
       <r>   49.5357    0.0000 </r>
       <r>   50.9891    0.0000 </r>
       <r>   51.5748    0.0000 </r>
       <r>   52.0363    0.0000 </r>
       <r>   52.0363    0.0000 </r>
       <r>   52.5002    0.0000 </r>
       <r>   53.0662    0.0000 </r>
       <r>   53.5435    0.0000 </r>
       <r>   53.5435    0.0000 </r>
       <r>   53.7195    0.0000 </r>
       <r>   55.6853    0.0000 </r>
       <r>   55.6853    0.0000 </r>
       <r>   56.0535    0.0000 </r>
       <r>   59.2266    0.0000 </r>
       <r>   61.0192    0.0000 </r>
       <r>   61.0192    0.0000 </r>
       <r>   63.4726    0.0000 </r>
       <r>   63.7223    0.0000 </r>
       <r>   65.8195    0.0000 </r>
       <r>   71.3822    0.0000 </r>
       <r>   72.4318    0.0000 </r>
       <r>   72.4318    0.0000 </r>
       <r>   73.5902    0.0000 </r>
      </set>
      <set comment="kpoint 7">
       <r>   -5.9067    1.0000 </r>
       <r>    4.1730    1.0000 </r>
       <r>    4.7787    1.0000 </r>
       <r>    4.7787    1.0000 </r>
       <r>    7.5912    0.0000 </r>
       <r>    9.3643    0.0000 </r>
       <r>    9.3643    0.0000 </r>
       <r>    9.8643    0.0000 </r>
       <r>   12.0642    0.0000 </r>
       <r>   13.6479    0.0000 </r>
       <r>   14.6436    0.0000 </r>
       <r>   17.3023    0.0000 </r>
       <r>   17.3023    0.0000 </r>
       <r>   17.7956    0.0000 </r>
       <r>   22.8164    0.0000 </r>
       <r>   25.8307    0.0000 </r>
       <r>   25.8307    0.0000 </r>
       <r>   27.0619    0.0000 </r>
       <r>   27.8822    0.0000 </r>
       <r>   28.8592    0.0000 </r>
       <r>   31.8015    0.0000 </r>
       <r>   32.1609    0.0000 </r>
       <r>   32.1609    0.0000 </r>
       <r>   36.6188    0.0000 </r>
       <r>   36.6188    0.0000 </r>
       <r>   37.1255    0.0000 </r>
       <r>   38.2269    0.0000 </r>
       <r>   38.2269    0.0000 </r>
       <r>   38.3471    0.0000 </r>
       <r>   40.4161    0.0000 </r>
       <r>   42.1760    0.0000 </r>
       <r>   43.2461    0.0000 </r>
       <r>   44.9165    0.0000 </r>
       <r>   45.5320    0.0000 </r>
       <r>   45.5320    0.0000 </r>
       <r>   45.5500    0.0000 </r>
       <r>   46.8495    0.0000 </r>
       <r>   47.2309    0.0000 </r>
       <r>   47.2309    0.0000 </r>
       <r>   48.6798    0.0000 </r>
       <r>   48.6798    0.0000 </r>
       <r>   49.7375    0.0000 </r>
       <r>   51.3502    0.0000 </r>
       <r>   51.5428    0.0000 </r>
       <r>   52.4332    0.0000 </r>
       <r>   52.4332    0.0000 </r>
       <r>   52.9004    0.0000 </r>
       <r>   53.2189    0.0000 </r>
       <r>   53.2189    0.0000 </r>
       <r>   53.8498    0.0000 </r>
       <r>   53.9198    0.0000 </r>
       <r>   56.0305    0.0000 </r>
       <r>   56.6991    0.0000 </r>
       <r>   56.6991    0.0000 </r>
       <r>   59.9740    0.0000 </r>
       <r>   62.0203    0.0000 </r>
       <r>   62.0203    0.0000 </r>
       <r>   63.9203    0.0000 </r>
       <r>   64.2186    0.0000 </r>
       <r>   64.6643    0.0000 </r>
       <r>   71.4277    0.0000 </r>
       <r>   71.6017    0.0000 </r>
       <r>   71.6017    0.0000 </r>
       <r>   72.6546    0.0000 </r>
      </set>
      <set comment="kpoint 8">
       <r>   -5.8018    1.0000 </r>
       <r>    3.8085    1.0000 </r>
       <r>    4.5806    1.0000 </r>
       <r>    4.5806    1.0000 </r>
       <r>    7.4341    0.0000 </r>
       <r>    9.6897    0.0000 </r>
       <r>    9.6897    0.0000 </r>
       <r>    9.8949    0.0000 </r>
       <r>   12.0378    0.0000 </r>
       <r>   13.7651    0.0000 </r>
       <r>   15.0047    0.0000 </r>
       <r>   17.4822    0.0000 </r>
       <r>   17.4822    0.0000 </r>
       <r>   18.0275    0.0000 </r>
       <r>   23.4175    0.0000 </r>
       <r>   25.2506    0.0000 </r>
       <r>   25.2506    0.0000 </r>
       <r>   26.4632    0.0000 </r>
       <r>   27.4838    0.0000 </r>
       <r>   29.0147    0.0000 </r>
       <r>   31.8890    0.0000 </r>
       <r>   32.3069    0.0000 </r>
       <r>   32.3069    0.0000 </r>
       <r>   37.2163    0.0000 </r>
       <r>   37.2163    0.0000 </r>
       <r>   37.6975    0.0000 </r>
       <r>   37.6975    0.0000 </r>
       <r>   37.7293    0.0000 </r>
       <r>   37.7894    0.0000 </r>
       <r>   39.5568    0.0000 </r>
       <r>   41.6672    0.0000 </r>
       <r>   43.0680    0.0000 </r>
       <r>   44.8989    0.0000 </r>
       <r>   44.8989    0.0000 </r>
       <r>   45.2507    0.0000 </r>
       <r>   45.5591    0.0000 </r>
       <r>   46.7047    0.0000 </r>
       <r>   46.9801    0.0000 </r>
       <r>   46.9801    0.0000 </r>
       <r>   48.8646    0.0000 </r>
       <r>   48.8646    0.0000 </r>
       <r>   49.9627    0.0000 </r>
       <r>   51.2572    0.0000 </r>
       <r>   51.7559    0.0000 </r>
       <r>   52.4477    0.0000 </r>
       <r>   52.4477    0.0000 </r>
       <r>   53.3520    0.0000 </r>
       <r>   53.3809    0.0000 </r>
       <r>   53.3809    0.0000 </r>
       <r>   54.2392    0.0000 </r>
       <r>   54.4896    0.0000 </r>
       <r>   56.3445    0.0000 </r>
       <r>   57.7193    0.0000 </r>
       <r>   57.7193    0.0000 </r>
       <r>   60.7584    0.0000 </r>
       <r>   62.9630    0.0000 </r>
       <r>   63.0609    0.0000 </r>
       <r>   63.0609    0.0000 </r>
       <r>   64.7720    0.0000 </r>
       <r>   64.9862    0.0000 </r>
       <r>   70.7270    0.0000 </r>
       <r>   70.7270    0.0000 </r>
       <r>   71.4682    0.0000 </r>
       <r>   71.6929    0.0000 </r>
      </set>
      <set comment="kpoint 9">
       <r>   -5.6811    1.0000 </r>
       <r>    3.4352    1.0000 </r>
       <r>    4.3858    1.0000 </r>
       <r>    4.3858    1.0000 </r>
       <r>    7.2759    0.0000 </r>
       <r>    9.7651    0.0000 </r>
       <r>   10.0304    0.0000 </r>
       <r>   10.0304    0.0000 </r>
       <r>   12.1926    0.0000 </r>
       <r>   13.9003    0.0000 </r>
       <r>   15.3954    0.0000 </r>
       <r>   17.6866    0.0000 </r>
       <r>   17.6866    0.0000 </r>
       <r>   18.2692    0.0000 </r>
       <r>   24.0566    0.0000 </r>
       <r>   24.6770    0.0000 </r>
       <r>   24.6770    0.0000 </r>
       <r>   25.8602    0.0000 </r>
       <r>   27.0780    0.0000 </r>
       <r>   29.2051    0.0000 </r>
       <r>   31.9321    0.0000 </r>
       <r>   32.4310    0.0000 </r>
       <r>   32.4310    0.0000 </r>
       <r>   36.9540    0.0000 </r>
       <r>   36.9540    0.0000 </r>
       <r>   37.1800    0.0000 </r>
       <r>   38.0277    0.0000 </r>
       <r>   38.0277    0.0000 </r>
       <r>   38.3104    0.0000 </r>
       <r>   38.6823    0.0000 </r>
       <r>   41.2405    0.0000 </r>
       <r>   42.8852    0.0000 </r>
       <r>   44.3055    0.0000 </r>
       <r>   44.3055    0.0000 </r>
       <r>   45.5859    0.0000 </r>
       <r>   45.6204    0.0000 </r>
       <r>   46.5468    0.0000 </r>
       <r>   46.7218    0.0000 </r>
       <r>   46.7218    0.0000 </r>
       <r>   49.0380    0.0000 </r>
       <r>   49.0380    0.0000 </r>
       <r>   50.2108    0.0000 </r>
       <r>   50.8523    0.0000 </r>
       <r>   52.2004    0.0000 </r>
       <r>   52.2568    0.0000 </r>
       <r>   52.2568    0.0000 </r>
       <r>   53.8499    0.0000 </r>
       <r>   53.8748    0.0000 </r>
       <r>   53.8748    0.0000 </r>
       <r>   54.6735    0.0000 </r>
       <r>   54.7485    0.0000 </r>
       <r>   57.0872    0.0000 </r>
       <r>   58.7406    0.0000 </r>
       <r>   58.7406    0.0000 </r>
       <r>   61.5683    0.0000 </r>
       <r>   61.6887    0.0000 </r>
       <r>   64.1360    0.0000 </r>
       <r>   64.1360    0.0000 </r>
       <r>   65.3739    0.0000 </r>
       <r>   65.7117    0.0000 </r>
       <r>   69.8360    0.0000 </r>
       <r>   69.8360    0.0000 </r>
       <r>   70.7153    0.0000 </r>
       <r>   71.4927    0.0000 </r>
      </set>
      <set comment="kpoint 10">
       <r>   -5.5447    1.0000 </r>
       <r>    3.0561    1.0000 </r>
       <r>    4.1974    1.0000 </r>
       <r>    4.1974    1.0000 </r>
       <r>    7.1207    0.0000 </r>
       <r>    9.5229    0.0000 </r>
       <r>   10.3831    0.0000 </r>
       <r>   10.3831    0.0000 </r>
       <r>   12.4823    0.0000 </r>
       <r>   14.0533    0.0000 </r>
       <r>   15.8100    0.0000 </r>
       <r>   17.9124    0.0000 </r>
       <r>   17.9124    0.0000 </r>
       <r>   18.5242    0.0000 </r>
       <r>   24.1167    0.0000 </r>
       <r>   24.1167    0.0000 </r>
       <r>   24.7169    0.0000 </r>
       <r>   25.2586    0.0000 </r>
       <r>   26.6699    0.0000 </r>
       <r>   29.4375    0.0000 </r>
       <r>   31.9219    0.0000 </r>
       <r>   32.5320    0.0000 </r>
       <r>   32.5320    0.0000 </r>
       <r>   36.3153    0.0000 </r>
       <r>   36.3153    0.0000 </r>
       <r>   36.5377    0.0000 </r>
       <r>   37.8010    0.0000 </r>
       <r>   38.7376    0.0000 </r>
       <r>   38.7376    0.0000 </r>
       <r>   38.8494    0.0000 </r>
       <r>   40.8971    0.0000 </r>
       <r>   42.7017    0.0000 </r>
       <r>   43.7520    0.0000 </r>
       <r>   43.7520    0.0000 </r>
       <r>   45.7508    0.0000 </r>
       <r>   45.9036    0.0000 </r>
       <r>   46.3778    0.0000 </r>
       <r>   46.4702    0.0000 </r>
       <r>   46.4702    0.0000 </r>
       <r>   49.1528    0.0000 </r>
       <r>   49.1528    0.0000 </r>
       <r>   50.4042    0.0000 </r>
       <r>   50.4841    0.0000 </r>
       <r>   52.1413    0.0000 </r>
       <r>   52.1413    0.0000 </r>
       <r>   52.6792    0.0000 </r>
       <r>   54.3901    0.0000 </r>
       <r>   54.4452    0.0000 </r>
       <r>   54.4452    0.0000 </r>
       <r>   54.6550    0.0000 </r>
       <r>   55.3005    0.0000 </r>
       <r>   58.0348    0.0000 </r>
       <r>   59.7565    0.0000 </r>
       <r>   59.7565    0.0000 </r>
       <r>   60.4880    0.0000 </r>
       <r>   62.3859    0.0000 </r>
       <r>   65.2356    0.0000 </r>
       <r>   65.2356    0.0000 </r>
       <r>   66.0166    0.0000 </r>
       <r>   66.4900    0.0000 </r>
       <r>   68.9466    0.0000 </r>
       <r>   68.9466    0.0000 </r>
       <r>   69.7261    0.0000 </r>
       <r>   71.4831    0.0000 </r>
      </set>
      <set comment="kpoint 11">
       <r>   -5.3928    1.0000 </r>
       <r>    2.6736    1.0000 </r>
       <r>    4.0174    1.0000 </r>
       <r>    4.0174    1.0000 </r>
       <r>    6.9717    0.0000 </r>
       <r>    9.2256    0.0000 </r>
       <r>   10.7454    0.0000 </r>
       <r>   10.7454    0.0000 </r>
       <r>   12.8512    0.0000 </r>
       <r>   14.2244    0.0000 </r>
       <r>   16.2427    0.0000 </r>
       <r>   18.1549    0.0000 </r>
       <r>   18.1549    0.0000 </r>
       <r>   18.7956    0.0000 </r>
       <r>   23.5772    0.0000 </r>
       <r>   23.5772    0.0000 </r>
       <r>   24.6624    0.0000 </r>
       <r>   25.3806    0.0000 </r>
       <r>   26.2642    0.0000 </r>
       <r>   29.7217    0.0000 </r>
       <r>   31.8482    0.0000 </r>
       <r>   32.6003    0.0000 </r>
       <r>   32.6003    0.0000 </r>
       <r>   35.6630    0.0000 </r>
       <r>   35.6630    0.0000 </r>
       <r>   35.8852    0.0000 </r>
       <r>   36.9196    0.0000 </r>
       <r>   39.3293    0.0000 </r>
       <r>   39.4765    0.0000 </r>
       <r>   39.4765    0.0000 </r>
       <r>   40.6319    0.0000 </r>
       <r>   42.5209    0.0000 </r>
       <r>   43.2378    0.0000 </r>
       <r>   43.2378    0.0000 </r>
       <r>   45.9668    0.0000 </r>
       <r>   46.1874    0.0000 </r>
       <r>   46.1988    0.0000 </r>
       <r>   46.2313    0.0000 </r>
       <r>   46.2313    0.0000 </r>
       <r>   49.1823    0.0000 </r>
       <r>   49.1823    0.0000 </r>
       <r>   49.9470    0.0000 </r>
       <r>   50.7893    0.0000 </r>
       <r>   52.1592    0.0000 </r>
       <r>   52.1592    0.0000 </r>
       <r>   53.1885    0.0000 </r>
       <r>   54.5314    0.0000 </r>
       <r>   54.9692    0.0000 </r>
       <r>   55.0502    0.0000 </r>
       <r>   55.0502    0.0000 </r>
       <r>   55.8630    0.0000 </r>
       <r>   58.7804    0.0000 </r>
       <r>   59.6937    0.0000 </r>
       <r>   60.7590    0.0000 </r>
       <r>   60.7590    0.0000 </r>
       <r>   63.1866    0.0000 </r>
       <r>   66.3380    0.0000 </r>
       <r>   66.3380    0.0000 </r>
       <r>   66.6937    0.0000 </r>
       <r>   67.2952    0.0000 </r>
       <r>   68.0791    0.0000 </r>
       <r>   68.0791    0.0000 </r>
       <r>   68.7323    0.0000 </r>
       <r>   71.4136    0.0000 </r>
      </set>
      <set comment="kpoint 12">
       <r>   -5.2255    1.0000 </r>
       <r>    2.2890    1.0000 </r>
       <r>    3.8474    1.0000 </r>
       <r>    3.8474    1.0000 </r>
       <r>    6.8316    0.0000 </r>
       <r>    8.9089    0.0000 </r>
       <r>   11.1156    0.0000 </r>
       <r>   11.1156    0.0000 </r>
       <r>   13.2641    0.0000 </r>
       <r>   14.4133    0.0000 </r>
       <r>   16.6874    0.0000 </r>
       <r>   18.4059    0.0000 </r>
       <r>   18.4059    0.0000 </r>
       <r>   19.0864    0.0000 </r>
       <r>   23.0688    0.0000 </r>
       <r>   23.0688    0.0000 </r>
       <r>   24.0741    0.0000 </r>
       <r>   25.8664    0.0000 </r>
       <r>   26.0286    0.0000 </r>
       <r>   30.0697    0.0000 </r>
       <r>   31.6987    0.0000 </r>
       <r>   32.6084    0.0000 </r>
       <r>   32.6084    0.0000 </r>
       <r>   35.0454    0.0000 </r>
       <r>   35.0454    0.0000 </r>
       <r>   35.2479    0.0000 </r>
       <r>   36.0433    0.0000 </r>
       <r>   39.7367    0.0000 </r>
       <r>   40.2206    0.0000 </r>
       <r>   40.2206    0.0000 </r>
       <r>   40.4379    0.0000 </r>
       <r>   42.3454    0.0000 </r>
       <r>   42.7657    0.0000 </r>
       <r>   42.7657    0.0000 </r>
       <r>   46.0078    0.0000 </r>
       <r>   46.0078    0.0000 </r>
       <r>   46.0098    0.0000 </r>
       <r>   46.2808    0.0000 </r>
       <r>   46.4228    0.0000 </r>
       <r>   49.1302    0.0000 </r>
       <r>   49.1302    0.0000 </r>
       <r>   49.4982    0.0000 </r>
       <r>   51.1337    0.0000 </r>
       <r>   52.3083    0.0000 </r>
       <r>   52.3083    0.0000 </r>
       <r>   53.7248    0.0000 </r>
       <r>   54.2658    0.0000 </r>
       <r>   55.5847    0.0000 </r>
       <r>   55.6807    0.0000 </r>
       <r>   55.6807    0.0000 </r>
       <r>   56.4211    0.0000 </r>
       <r>   58.2486    0.0000 </r>
       <r>   60.4216    0.0000 </r>
       <r>   61.7325    0.0000 </r>
       <r>   61.7325    0.0000 </r>
       <r>   63.9360    0.0000 </r>
       <r>   67.1558    0.0000 </r>
       <r>   67.1558    0.0000 </r>
       <r>   67.3963    0.0000 </r>
       <r>   67.4997    0.0000 </r>
       <r>   67.4997    0.0000 </r>
       <r>   67.7360    0.0000 </r>
       <r>   68.1141    0.0000 </r>
       <r>   71.2452    0.0000 </r>
      </set>
      <set comment="kpoint 13">
       <r>   -5.0430    1.0000 </r>
       <r>    1.9035    1.0000 </r>
       <r>    3.6885    1.0000 </r>
       <r>    3.6885    1.0000 </r>
       <r>    6.7026    0.0000 </r>
       <r>    8.5917    0.0000 </r>
       <r>   11.4924    0.0000 </r>
       <r>   11.4924    0.0000 </r>
       <r>   13.7017    0.0000 </r>
       <r>   14.6200    0.0000 </r>
       <r>   17.1370    0.0000 </r>
       <r>   18.6503    0.0000 </r>
       <r>   18.6503    0.0000 </r>
       <r>   19.3989    0.0000 </r>
       <r>   22.6074    0.0000 </r>
       <r>   22.6074    0.0000 </r>
       <r>   23.4958    0.0000 </r>
       <r>   25.4828    0.0000 </r>
       <r>   26.6412    0.0000 </r>
       <r>   30.4942    0.0000 </r>
       <r>   31.4597    0.0000 </r>
       <r>   32.4967    0.0000 </r>
       <r>   32.4967    0.0000 </r>
       <r>   34.5327    0.0000 </r>
       <r>   34.5327    0.0000 </r>
       <r>   34.6503    0.0000 </r>
       <r>   35.1778    0.0000 </r>
       <r>   40.0657    0.0000 </r>
       <r>   40.3083    0.0000 </r>
       <r>   40.9379    0.0000 </r>
       <r>   40.9379    0.0000 </r>
       <r>   42.1770    0.0000 </r>
       <r>   42.3550    0.0000 </r>
       <r>   42.3550    0.0000 </r>
       <r>   45.8009    0.0000 </r>
       <r>   45.8009    0.0000 </r>
       <r>   45.8098    0.0000 </r>
       <r>   46.5994    0.0000 </r>
       <r>   46.6987    0.0000 </r>
       <r>   49.0251    0.0000 </r>
       <r>   49.0251    0.0000 </r>
       <r>   49.0689    0.0000 </r>
       <r>   51.5211    0.0000 </r>
       <r>   52.5573    0.0000 </r>
       <r>   52.5573    0.0000 </r>
       <r>   53.7689    0.0000 </r>
       <r>   54.2849    0.0000 </r>
       <r>   56.2344    0.0000 </r>
       <r>   56.3333    0.0000 </r>
       <r>   56.3333    0.0000 </r>
       <r>   56.9660    0.0000 </r>
       <r>   57.6878    0.0000 </r>
       <r>   61.5138    0.0000 </r>
       <r>   62.6379    0.0000 </r>
       <r>   62.6379    0.0000 </r>
       <r>   64.5883    0.0000 </r>
       <r>   66.4659    0.0000 </r>
       <r>   66.4659    0.0000 </r>
       <r>   66.7401    0.0000 </r>
       <r>   68.1055    0.0000 </r>
       <r>   68.3617    0.0000 </r>
       <r>   68.3617    0.0000 </r>
       <r>   68.9325    0.0000 </r>
       <r>   70.9432    0.0000 </r>
      </set>
      <set comment="kpoint 14">
       <r>   -4.8457    1.0000 </r>
       <r>    1.5182    1.0000 </r>
       <r>    3.5414    1.0000 </r>
       <r>    3.5414    1.0000 </r>
       <r>    6.5863    0.0000 </r>
       <r>    8.2846    0.0000 </r>
       <r>   11.8750    0.0000 </r>
       <r>   11.8750    0.0000 </r>
       <r>   14.1530    0.0000 </r>
       <r>   14.8446    0.0000 </r>
       <r>   17.5827    0.0000 </r>
       <r>   18.8617    0.0000 </r>
       <r>   18.8617    0.0000 </r>
       <r>   19.7351    0.0000 </r>
       <r>   22.2203    0.0000 </r>
       <r>   22.2203    0.0000 </r>
       <r>   22.9290    0.0000 </r>
       <r>   25.1217    0.0000 </r>
       <r>   27.2019    0.0000 </r>
       <r>   31.0021    0.0000 </r>
       <r>   31.1209    0.0000 </r>
       <r>   32.1867    0.0000 </r>
       <r>   32.1867    0.0000 </r>
       <r>   34.1128    0.0000 </r>
       <r>   34.2106    0.0000 </r>
       <r>   34.2106    0.0000 </r>
       <r>   34.3315    0.0000 </r>
       <r>   40.2365    0.0000 </r>
       <r>   40.3186    0.0000 </r>
       <r>   41.4445    0.0000 </r>
       <r>   41.4445    0.0000 </r>
       <r>   42.0174    0.0000 </r>
       <r>   42.1780    0.0000 </r>
       <r>   42.1780    0.0000 </r>
       <r>   45.5971    0.0000 </r>
       <r>   45.6113    0.0000 </r>
       <r>   45.6113    0.0000 </r>
       <r>   46.7128    0.0000 </r>
       <r>   47.2176    0.0000 </r>
       <r>   48.6683    0.0000 </r>
       <r>   48.9016    0.0000 </r>
       <r>   48.9016    0.0000 </r>
       <r>   51.9226    0.0000 </r>
       <r>   52.8682    0.0000 </r>
       <r>   52.8682    0.0000 </r>
       <r>   53.0431    0.0000 </r>
       <r>   54.8654    0.0000 </r>
       <r>   56.9167    0.0000 </r>
       <r>   57.0064    0.0000 </r>
       <r>   57.0064    0.0000 </r>
       <r>   57.4496    0.0000 </r>
       <r>   57.4908    0.0000 </r>
       <r>   62.6427    0.0000 </r>
       <r>   63.3557    0.0000 </r>
       <r>   63.3557    0.0000 </r>
       <r>   65.0860    0.0000 </r>
       <r>   65.7476    0.0000 </r>
       <r>   65.9126    0.0000 </r>
       <r>   65.9126    0.0000 </r>
       <r>   68.7682    0.0000 </r>
       <r>   68.8815    0.0000 </r>
       <r>   68.8815    0.0000 </r>
       <r>   69.7319    0.0000 </r>
       <r>   70.4846    0.0000 </r>
      </set>
      <set comment="kpoint 15">
       <r>   -4.6338    1.0000 </r>
       <r>    1.1340    1.0000 </r>
       <r>    3.4070    1.0000 </r>
       <r>    3.4070    1.0000 </r>
       <r>    6.4843    0.0000 </r>
       <r>    7.9933    0.0000 </r>
       <r>   12.2625    0.0000 </r>
       <r>   12.2625    0.0000 </r>
       <r>   14.6110    0.0000 </r>
       <r>   15.0869    0.0000 </r>
       <r>   18.0128    0.0000 </r>
       <r>   18.9964    0.0000 </r>
       <r>   18.9964    0.0000 </r>
       <r>   20.0967    0.0000 </r>
       <r>   21.9514    0.0000 </r>
       <r>   21.9514    0.0000 </r>
       <r>   22.3748    0.0000 </r>
       <r>   24.7939    0.0000 </r>
       <r>   27.7016    0.0000 </r>
       <r>   30.6822    0.0000 </r>
       <r>   31.5770    0.0000 </r>
       <r>   31.6731    0.0000 </r>
       <r>   31.6731    0.0000 </r>
       <r>   33.5288    0.0000 </r>
       <r>   33.6447    0.0000 </r>
       <r>   34.0898    0.0000 </r>
       <r>   34.0898    0.0000 </r>
       <r>   40.2162    0.0000 </r>
       <r>   40.5048    0.0000 </r>
       <r>   41.3125    0.0000 </r>
       <r>   41.3125    0.0000 </r>
       <r>   41.8676    0.0000 </r>
       <r>   42.6500    0.0000 </r>
       <r>   42.6500    0.0000 </r>
       <r>   45.3693    0.0000 </r>
       <r>   45.4396    0.0000 </r>
       <r>   45.4396    0.0000 </r>
       <r>   46.7632    0.0000 </r>
       <r>   47.8274    0.0000 </r>
       <r>   48.3037    0.0000 </r>
       <r>   48.7888    0.0000 </r>
       <r>   48.7888    0.0000 </r>
       <r>   51.8124    0.0000 </r>
       <r>   52.6956    0.0000 </r>
       <r>   53.2076    0.0000 </r>
       <r>   53.2076    0.0000 </r>
       <r>   55.4623    0.0000 </r>
       <r>   57.4761    0.0000 </r>
       <r>   57.6296    0.0000 </r>
       <r>   57.6981    0.0000 </r>
       <r>   57.6981    0.0000 </r>
       <r>   57.9874    0.0000 </r>
       <r>   63.5862    0.0000 </r>
       <r>   63.5862    0.0000 </r>
       <r>   63.7751    0.0000 </r>
       <r>   64.7622    0.0000 </r>
       <r>   65.3653    0.0000 </r>
       <r>   65.8353    0.0000 </r>
       <r>   65.8353    0.0000 </r>
       <r>   68.8430    0.0000 </r>
       <r>   68.8443    0.0000 </r>
       <r>   69.1922    0.0000 </r>
       <r>   69.9058    0.0000 </r>
       <r>   70.4806    0.0000 </r>
      </set>
      <set comment="kpoint 16">
       <r>   -4.4075    1.0000 </r>
       <r>    0.7516    1.0000 </r>
       <r>    3.2857    1.0000 </r>
       <r>    3.2857    1.0000 </r>
       <r>    6.3977    0.0000 </r>
       <r>    7.7214    0.0000 </r>
       <r>   12.6546    0.0000 </r>
       <r>   12.6546    0.0000 </r>
       <r>   15.0709    0.0000 </r>
       <r>   15.3470    0.0000 </r>
       <r>   18.4111    0.0000 </r>
       <r>   19.0018    0.0000 </r>
       <r>   19.0018    0.0000 </r>
       <r>   20.4846    0.0000 </r>
       <r>   21.8341    0.0000 </r>
       <r>   21.8534    0.0000 </r>
       <r>   21.8534    0.0000 </r>
       <r>   24.5143    0.0000 </r>
       <r>   28.1408    0.0000 </r>
       <r>   30.1582    0.0000 </r>
       <r>   31.0336    0.0000 </r>
       <r>   31.0336    0.0000 </r>
       <r>   32.0301    0.0000 </r>
       <r>   32.9568    0.0000 </r>
       <r>   33.2400    0.0000 </r>
       <r>   34.0960    0.0000 </r>
       <r>   34.0960    0.0000 </r>
       <r>   40.2401    0.0000 </r>
       <r>   40.6375    0.0000 </r>
       <r>   40.9896    0.0000 </r>
       <r>   40.9896    0.0000 </r>
       <r>   41.7285    0.0000 </r>
       <r>   43.3081    0.0000 </r>
       <r>   43.3081    0.0000 </r>
       <r>   45.1249    0.0000 </r>
       <r>   45.2859    0.0000 </r>
       <r>   45.2859    0.0000 </r>
       <r>   46.7520    0.0000 </r>
       <r>   47.9814    0.0000 </r>
       <r>   48.5143    0.0000 </r>
       <r>   48.7109    0.0000 </r>
       <r>   48.7109    0.0000 </r>
       <r>   50.8487    0.0000 </r>
       <r>   53.1674    0.0000 </r>
       <r>   53.5462    0.0000 </r>
       <r>   53.5462    0.0000 </r>
       <r>   56.0694    0.0000 </r>
       <r>   57.6711    0.0000 </r>
       <r>   58.3714    0.0000 </r>
       <r>   58.4056    0.0000 </r>
       <r>   58.4056    0.0000 </r>
       <r>   58.4458    0.0000 </r>
       <r>   63.2723    0.0000 </r>
       <r>   63.2723    0.0000 </r>
       <r>   63.7893    0.0000 </r>
       <r>   64.8937    0.0000 </r>
       <r>   65.3781    0.0000 </r>
       <r>   66.2117    0.0000 </r>
       <r>   66.2117    0.0000 </r>
       <r>   68.5778    0.0000 </r>
       <r>   68.5778    0.0000 </r>
       <r>   69.0947    0.0000 </r>
       <r>   69.1711    0.0000 </r>
       <r>   70.7170    0.0000 </r>
      </set>
      <set comment="kpoint 17">
       <r>   -4.1673    1.0000 </r>
       <r>    0.3720    1.0000 </r>
       <r>    3.1779    1.0000 </r>
       <r>    3.1779    1.0000 </r>
       <r>    6.3276    0.0000 </r>
       <r>    7.4710    0.0000 </r>
       <r>   13.0506    0.0000 </r>
       <r>   13.0506    0.0000 </r>
       <r>   15.5289    0.0000 </r>
       <r>   15.6247    0.0000 </r>
       <r>   18.7561    0.0000 </r>
       <r>   18.8535    0.0000 </r>
       <r>   18.8535    0.0000 </r>
       <r>   20.8994    0.0000 </r>
       <r>   21.3076    0.0000 </r>
       <r>   21.9505    0.0000 </r>
       <r>   21.9505    0.0000 </r>
       <r>   24.3023    0.0000 </r>
       <r>   28.5263    0.0000 </r>
       <r>   29.5737    0.0000 </r>
       <r>   30.3351    0.0000 </r>
       <r>   30.3351    0.0000 </r>
       <r>   31.6351    0.0000 </r>
       <r>   32.8832    0.0000 </r>
       <r>   33.3343    0.0000 </r>
       <r>   34.1645    0.0000 </r>
       <r>   34.1645    0.0000 </r>
       <r>   40.3002    0.0000 </r>
       <r>   40.6645    0.0000 </r>
       <r>   40.6645    0.0000 </r>
       <r>   40.7306    0.0000 </r>
       <r>   41.6008    0.0000 </r>
       <r>   43.9453    0.0000 </r>
       <r>   43.9453    0.0000 </r>
       <r>   44.8641    0.0000 </r>
       <r>   45.1505    0.0000 </r>
       <r>   45.1505    0.0000 </r>
       <r>   46.6734    0.0000 </r>
       <r>   47.7054    0.0000 </r>
       <r>   48.6898    0.0000 </r>
       <r>   48.6898    0.0000 </r>
       <r>   49.2641    0.0000 </r>
       <r>   49.7963    0.0000 </r>
       <r>   53.7665    0.0000 </r>
       <r>   53.8566    0.0000 </r>
       <r>   53.8566    0.0000 </r>
       <r>   56.6763    0.0000 </r>
       <r>   57.9692    0.0000 </r>
       <r>   58.8530    0.0000 </r>
       <r>   59.1235    0.0000 </r>
       <r>   59.1235    0.0000 </r>
       <r>   59.1393    0.0000 </r>
       <r>   62.7858    0.0000 </r>
       <r>   62.7858    0.0000 </r>
       <r>   62.8392    0.0000 </r>
       <r>   65.1256    0.0000 </r>
       <r>   65.9785    0.0000 </r>
       <r>   66.4215    0.0000 </r>
       <r>   66.4215    0.0000 </r>
       <r>   68.4109    0.0000 </r>
       <r>   68.5891    0.0000 </r>
       <r>   68.5891    0.0000 </r>
       <r>   68.8097    0.0000 </r>
       <r>   71.2571    0.0000 </r>
      </set>
      <set comment="kpoint 18">
       <r>   -3.9134    1.0000 </r>
       <r>   -0.0038    1.0000 </r>
       <r>    3.0839    1.0000 </r>
       <r>    3.0839    1.0000 </r>
       <r>    6.2748    0.0000 </r>
       <r>    7.2432    0.0000 </r>
       <r>   13.4501    0.0000 </r>
       <r>   13.4501    0.0000 </r>
       <r>   15.9200    0.0000 </r>
       <r>   15.9818    0.0000 </r>
       <r>   18.5795    0.0000 </r>
       <r>   18.5795    0.0000 </r>
       <r>   19.0218    0.0000 </r>
       <r>   20.7958    0.0000 </r>
       <r>   21.3409    0.0000 </r>
       <r>   22.2142    0.0000 </r>
       <r>   22.2142    0.0000 </r>
       <r>   24.1807    0.0000 </r>
       <r>   28.8629    0.0000 </r>
       <r>   28.9554    0.0000 </r>
       <r>   29.6129    0.0000 </r>
       <r>   29.6129    0.0000 </r>
       <r>   30.9194    0.0000 </r>
       <r>   32.5575    0.0000 </r>
       <r>   34.1281    0.0000 </r>
       <r>   34.2608    0.0000 </r>
       <r>   34.2608    0.0000 </r>
       <r>   40.3619    0.0000 </r>
       <r>   40.3619    0.0000 </r>
       <r>   40.3859    0.0000 </r>
       <r>   40.7957    0.0000 </r>
       <r>   41.4846    0.0000 </r>
       <r>   44.5128    0.0000 </r>
       <r>   44.5128    0.0000 </r>
       <r>   44.5898    0.0000 </r>
       <r>   45.0346    0.0000 </r>
       <r>   45.0346    0.0000 </r>
       <r>   46.4972    0.0000 </r>
       <r>   47.4772    0.0000 </r>
       <r>   48.7469    0.0000 </r>
       <r>   48.7469    0.0000 </r>
       <r>   48.8013    0.0000 </r>
       <r>   50.0635    0.0000 </r>
       <r>   54.1093    0.0000 </r>
       <r>   54.1093    0.0000 </r>
       <r>   54.4163    0.0000 </r>
       <r>   57.2596    0.0000 </r>
       <r>   58.3323    0.0000 </r>
       <r>   59.1909    0.0000 </r>
       <r>   59.8393    0.0000 </r>
       <r>   59.8393    0.0000 </r>
       <r>   59.9290    0.0000 </r>
       <r>   61.9341    0.0000 </r>
       <r>   62.3390    0.0000 </r>
       <r>   62.3390    0.0000 </r>
       <r>   64.6647    0.0000 </r>
       <r>   66.1353    0.0000 </r>
       <r>   66.1353    0.0000 </r>
       <r>   66.9931    0.0000 </r>
       <r>   67.6260    0.0000 </r>
       <r>   68.5449    0.0000 </r>
       <r>   69.1021    0.0000 </r>
       <r>   69.1021    0.0000 </r>
       <r>   71.8128    0.0000 </r>
      </set>
      <set comment="kpoint 19">
       <r>   -3.6464    1.0000 </r>
       <r>   -0.3750    1.0000 </r>
       <r>    3.0040    1.0000 </r>
       <r>    3.0040    1.0000 </r>
       <r>    6.2404    0.0000 </r>
       <r>    7.0387    0.0000 </r>
       <r>   13.8522    0.0000 </r>
       <r>   13.8522    0.0000 </r>
       <r>   16.2328    0.0000 </r>
       <r>   16.4267    0.0000 </r>
       <r>   18.2282    0.0000 </r>
       <r>   18.2282    0.0000 </r>
       <r>   19.1829    0.0000 </r>
       <r>   20.2992    0.0000 </r>
[...]
        <r>  0.0000  0.0000  0.0053  0.0053  0.0000  0.0000  0.0000  0.0000  0.0000 </r>
       </set>
       <set comment="band 44">
        <r>  0.0005  0.0007  0.0053  0.0053  0.0000  0.0000  0.0000  0.0000  0.0000 </r>
        <r>  0.0005  0.0007  0.0053  0.0053  0.0000  0.0000  0.0000  0.0000  0.0000 </r>
       </set>
       <set comment="band 45">
        <r>  0.0000  0.0000  0.0002  0.0002  0.0000  0.0000  0.0000  0.0000  0.0000 </r>
        <r>  0.0000  0.0000  0.0002  0.0002  0.0000  0.0000  0.0000  0.0000  0.0000 </r>
       </set>
       <set comment="band 46">
        <r>  0.0000  0.0000  0.0002  0.0002  0.0000  0.0000  0.0000  0.0000  0.0000 </r>
        <r>  0.0000  0.0000  0.0002  0.0002  0.0000  0.0000  0.0000  0.0000  0.0000 </r>
       </set>
       <set comment="band 47">
        <r>  0.0190  0.0750  0.0000  0.0000  0.0000  0.0000  0.0000  0.0000  0.0000 </r>
        <r>  0.0190  0.0750  0.0000  0.0000  0.0000  0.0000  0.0000  0.0000  0.0000 </r>
       </set>
       <set comment="band 48">
        <r>  0.0186  0.0762  0.0008  0.0008  0.0000  0.0000  0.0000  0.0000  0.0000 </r>
        <r>  0.0186  0.0762  0.0008  0.0008  0.0000  0.0000  0.0000  0.0000  0.0000 </r>
       </set>
       <set comment="band 49">
        <r>  0.0084  0.0477  0.0034  0.0034  0.0000  0.0000  0.0000  0.0000  0.0000 </r>
        <r>  0.0084  0.0477  0.0034  0.0034  0.0000  0.0000  0.0000  0.0000  0.0000 </r>
       </set>
       <set comment="band 50">
        <r>  0.0116  0.0528  0.0000  0.0000  0.0000  0.0000  0.0000  0.0000  0.0000 </r>
        <r>  0.0116  0.0528  0.0000  0.0000  0.0000  0.0000  0.0000  0.0000  0.0000 </r>
       </set>
       <set comment="band 51">
        <r>  0.0000  0.0000  0.0135  0.0135  0.0000  0.0000  0.0000  0.0000  0.0000 </r>
        <r>  0.0000  0.0000  0.0135  0.0135  0.0000  0.0000  0.0000  0.0000  0.0000 </r>
       </set>
       <set comment="band 52">
        <r>  0.0000  0.0000  0.0206  0.0206  0.0000  0.0000  0.0000  0.0000  0.0000 </r>
        <r>  0.0000  0.0000  0.0206  0.0206  0.0000  0.0000  0.0000  0.0000  0.0000 </r>
       </set>
       <set comment="band 53">
        <r>  0.0055  0.0063  0.0202  0.0202  0.0000  0.0000  0.0000  0.0000  0.0000 </r>
        <r>  0.0055  0.0063  0.0202  0.0202  0.0000  0.0000  0.0000  0.0000  0.0000 </r>
       </set>
       <set comment="band 54">
        <r>  0.0033  0.0001  0.0475  0.0475  0.0000  0.0000  0.0000  0.0000  0.0000 </r>
        <r>  0.0033  0.0001  0.0475  0.0475  0.0000  0.0000  0.0000  0.0000  0.0000 </r>
       </set>
       <set comment="band 55">
        <r>  0.0000  0.0000  0.0090  0.0090  0.0000  0.0000  0.0000  0.0000  0.0000 </r>
        <r>  0.0000  0.0000  0.0090  0.0090  0.0000  0.0000  0.0000  0.0000  0.0000 </r>
       </set>
       <set comment="band 56">
        <r>  0.0000  0.0000  0.0255  0.0255  0.0000  0.0000  0.0000  0.0000  0.0000 </r>
        <r>  0.0000  0.0000  0.0255  0.0255  0.0000  0.0000  0.0000  0.0000  0.0000 </r>
       </set>
       <set comment="band 57">
        <r>  0.0000  0.0000  0.0052  0.0052  0.0000  0.0000  0.0000  0.0000  0.0000 </r>
        <r>  0.0000  0.0000  0.0052  0.0052  0.0000  0.0000  0.0000  0.0000  0.0000 </r>
       </set>
       <set comment="band 58">
        <r>  0.0002  0.0000  0.0038  0.0038  0.0000  0.0000  0.0000  0.0000  0.0000 </r>
        <r>  0.0002  0.0000  0.0038  0.0038  0.0000  0.0000  0.0000  0.0000  0.0000 </r>
       </set>
       <set comment="band 59">
        <r>  0.0000  0.0000  0.0164  0.0164  0.0000  0.0000  0.0000  0.0000  0.0000 </r>
        <r>  0.0000  0.0000  0.0164  0.0164  0.0000  0.0000  0.0000  0.0000  0.0000 </r>
       </set>
       <set comment="band 60">
        <r>  0.0000  0.0000  0.0001  0.0001  0.0000  0.0000  0.0000  0.0000  0.0000 </r>
        <r>  0.0000  0.0000  0.0001  0.0001  0.0000  0.0000  0.0000  0.0000  0.0000 </r>
       </set>
       <set comment="band 61">
        <r>  0.0015  0.0001  0.0223  0.0223  0.0000  0.0000  0.0000  0.0000  0.0000 </r>
        <r>  0.0015  0.0001  0.0223  0.0223  0.0000  0.0000  0.0000  0.0000  0.0000 </r>
       </set>
       <set comment="band 62">
        <r>  0.0000  0.0000  0.0103  0.0103  0.0000  0.0000  0.0000  0.0000  0.0000 </r>
        <r>  0.0000  0.0000  0.0103  0.0103  0.0000  0.0000  0.0000  0.0000  0.0000 </r>
       </set>
       <set comment="band 63">
        <r>  0.1395  0.0000  0.0014  0.0014  0.0000  0.0000  0.0000  0.0000  0.0000 </r>
        <r>  0.1395  0.0000  0.0014  0.0014  0.0000  0.0000  0.0000  0.0000  0.0000 </r>
       </set>
       <set comment="band 64">
        <r>  0.1389  0.0000  0.0017  0.0017  0.0000  0.0000  0.0000  0.0000  0.0000 </r>
        <r>  0.1390  0.0000  0.0017  0.0017  0.0000  0.0000  0.0000  0.0000  0.0000 </r>
       </set>
      </set>
      <set comment="kpoint 164">
       <set comment="band 1">
        <r>  0.3439  0.0097  0.0000  0.0000  0.0000  0.0000  0.0000  0.0000  0.0000 </r>
        <r>  0.0426  0.0782  0.0000  0.0000  0.0000  0.0000  0.0000  0.0000  0.0000 </r>
       </set>
       <set comment="band 2">
        <r>  0.0426  0.0782  0.0000  0.0000  0.0000  0.0000  0.0000  0.0000  0.0000 </r>
        <r>  0.3439  0.0097  0.0000  0.0000  0.0000  0.0000  0.0000  0.0000  0.0000 </r>
       </set>
       <set comment="band 3">
        <r>  0.0000  0.0000  0.0968  0.0982  0.0000  0.0000  0.0000  0.0000  0.0000 </r>
        <r>  0.0000  0.0000  0.0982  0.0968  0.0000  0.0000  0.0000  0.0000  0.0000 </r>
       </set>
       <set comment="band 4">
        <r>  0.0000  0.0000  0.0982  0.0968  0.0000  0.0000  0.0000  0.0000  0.0000 </r>
        <r>  0.0000  0.0000  0.0968  0.0982  0.0000  0.0000  0.0000  0.0000  0.0000 </r>
       </set>
       <set comment="band 5">
        <r>  0.0567  0.0323  0.0000  0.0000  0.0000  0.0000  0.0000  0.0000  0.0000 </r>
        <r>  0.0456  0.0401  0.0000  0.0000  0.0000  0.0000  0.0000  0.0000  0.0000 </r>
       </set>
       <set comment="band 6">
        <r>  0.0456  0.0401  0.0000  0.0000  0.0000  0.0000  0.0000  0.0000  0.0000 </r>
        <r>  0.0567  0.0323  0.0000  0.0000  0.0000  0.0000  0.0000  0.0000  0.0000 </r>
       </set>
       <set comment="band 7">
        <r>  0.0000  0.0000  0.0898  0.1501  0.0000  0.0000  0.0000  0.0000  0.0000 </r>
        <r>  0.0000  0.0000  0.1501  0.0898  0.0000  0.0000  0.0000  0.0000  0.0000 </r>
       </set>
       <set comment="band 8">
        <r>  0.0000  0.0000  0.1501  0.0898  0.0000  0.0000  0.0000  0.0000  0.0000 </r>
        <r>  0.0000  0.0000  0.0898  0.1501  0.0000  0.0000  0.0000  0.0000  0.0000 </r>
       </set>
       <set comment="band 9">
        <r>  0.0000  0.0000  0.0055  0.0055  0.0000  0.0000  0.0000  0.0000  0.0000 </r>
        <r>  0.0000  0.0000  0.0055  0.0055  0.0000  0.0000  0.0000  0.0000  0.0000 </r>
       </set>
       <set comment="band 10">
        <r>  0.0000  0.0000  0.0055  0.0055  0.0000  0.0000  0.0000  0.0000  0.0000 </r>
        <r>  0.0000  0.0000  0.0055  0.0055  0.0000  0.0000  0.0000  0.0000  0.0000 </r>
       </set>
       <set comment="band 11">
        <r>  0.0000  0.0000  0.0000  0.0000  0.0000  0.0000  0.0000  0.0000  0.0000 </r>
        <r>  0.0000  0.0000  0.0000  0.0000  0.0000  0.0000  0.0000  0.0000  0.0000 </r>
       </set>
       <set comment="band 12">
        <r>  0.0000  0.0000  0.0000  0.0000  0.0000  0.0000  0.0000  0.0000  0.0000 </r>
        <r>  0.0000  0.0000  0.0000  0.0000  0.0000  0.0000  0.0000  0.0000  0.0000 </r>
       </set>
       <set comment="band 13">
        <r>  0.0849  0.1072  0.0000  0.0000  0.0000  0.0000  0.0000  0.0000  0.0000 </r>
        <r>  0.0296  0.3076  0.0000  0.0000  0.0000  0.0000  0.0000  0.0000  0.0000 </r>
       </set>
       <set comment="band 14">
        <r>  0.0296  0.3076  0.0000  0.0000  0.0000  0.0000  0.0000  0.0000  0.0000 </r>
        <r>  0.0849  0.1072  0.0000  0.0000  0.0000  0.0000  0.0000  0.0000  0.0000 </r>
       </set>
       <set comment="band 15">
        <r>  0.0025  0.0042  0.0000  0.0000  0.0000  0.0000  0.0000  0.0000  0.0000 </r>
        <r>  0.0124  0.0008  0.0000  0.0000  0.0000  0.0000  0.0000  0.0000  0.0000 </r>
       </set>
       <set comment="band 16">
        <r>  0.0124  0.0008  0.0000  0.0000  0.0000  0.0000  0.0000  0.0000  0.0000 </r>
        <r>  0.0025  0.0042  0.0000  0.0000  0.0000  0.0000  0.0000  0.0000  0.0000 </r>
       </set>
       <set comment="band 17">
        <r>  0.0000  0.0000  0.0327  0.0210  0.0000  0.0000  0.0000  0.0000  0.0000 </r>
        <r>  0.0000  0.0000  0.0210  0.0327  0.0000  0.0000  0.0000  0.0000  0.0000 </r>
       </set>
       <set comment="band 18">
        <r>  0.0000  0.0000  0.0210  0.0327  0.0000  0.0000  0.0000  0.0000  0.0000 </r>
        <r>  0.0000  0.0000  0.0327  0.0210  0.0000  0.0000  0.0000  0.0000  0.0000 </r>
       </set>
       <set comment="band 19">
        <r>  0.0000  0.0000  0.0335  0.0067  0.0000  0.0000  0.0000  0.0000  0.0000 </r>
        <r>  0.0000  0.0000  0.0067  0.0335  0.0000  0.0000  0.0000  0.0000  0.0000 </r>
       </set>
       <set comment="band 20">
        <r>  0.0000  0.0000  0.0067  0.0335  0.0000  0.0000  0.0000  0.0000  0.0000 </r>
        <r>  0.0000  0.0000  0.0335  0.0067  0.0000  0.0000  0.0000  0.0000  0.0000 </r>
       </set>
       <set comment="band 21">
        <r>  0.0510  0.0292  0.0000  0.0000  0.0000  0.0000  0.0000  0.0000  0.0000 </r>
        <r>  0.0719  0.0207  0.0000  0.0000  0.0000  0.0000  0.0000  0.0000  0.0000 </r>
       </set>
       <set comment="band 22">
        <r>  0.0719  0.0207  0.0000  0.0000  0.0000  0.0000  0.0000  0.0000  0.0000 </r>
        <r>  0.0510  0.0292  0.0000  0.0000  0.0000  0.0000  0.0000  0.0000  0.0000 </r>
       </set>
       <set comment="band 23">
        <r>  0.0032  0.0042  0.0000  0.0000  0.0000  0.0000  0.0000  0.0000  0.0000 </r>
        <r>  0.0030  0.0045  0.0000  0.0000  0.0000  0.0000  0.0000  0.0000  0.0000 </r>
       </set>
       <set comment="band 24">
        <r>  0.0030  0.0045  0.0000  0.0000  0.0000  0.0000  0.0000  0.0000  0.0000 </r>
        <r>  0.0032  0.0042  0.0000  0.0000  0.0000  0.0000  0.0000  0.0000  0.0000 </r>
       </set>
       <set comment="band 25">
        <r>  0.0000  0.0000  0.0426  0.0507  0.0000  0.0000  0.0000  0.0000  0.0000 </r>
        <r>  0.0000  0.0000  0.0507  0.0426  0.0000  0.0000  0.0000  0.0000  0.0000 </r>
       </set>
       <set comment="band 26">
        <r>  0.0000  0.0000  0.0507  0.0426  0.0000  0.0000  0.0000  0.0000  0.0000 </r>
        <r>  0.0000  0.0000  0.0426  0.0507  0.0000  0.0000  0.0000  0.0000  0.0000 </r>
       </set>
       <set comment="band 27">
        <r>  0.0000  0.0000  0.0419  0.0301  0.0000  0.0000  0.0000  0.0000  0.0000 </r>
        <r>  0.0000  0.0000  0.0301  0.0419  0.0000  0.0000  0.0000  0.0000  0.0000 </r>
       </set>
       <set comment="band 28">
        <r>  0.0000  0.0000  0.0301  0.0419  0.0000  0.0000  0.0000  0.0000  0.0000 </r>
        <r>  0.0000  0.0000  0.0419  0.0301  0.0000  0.0000  0.0000  0.0000  0.0000 </r>
       </set>
       <set comment="band 29">
        <r>  0.0075  0.0084  0.0000  0.0000  0.0000  0.0000  0.0000  0.0000  0.0000 </r>
        <r>  0.0068  0.0093  0.0000  0.0000  0.0000  0.0000  0.0000  0.0000  0.0000 </r>
       </set>
       <set comment="band 30">
        <r>  0.0068  0.0093  0.0000  0.0000  0.0000  0.0000  0.0000  0.0000  0.0000 </r>
        <r>  0.0075  0.0084  0.0000  0.0000  0.0000  0.0000  0.0000  0.0000  0.0000 </r>
       </set>
       <set comment="band 31">
        <r>  0.0000  0.0000  0.0000  0.0000  0.0000  0.0000  0.0000  0.0000  0.0000 </r>
        <r>  0.0000  0.0000  0.0000  0.0000  0.0000  0.0000  0.0000  0.0000  0.0000 </r>
       </set>
       <set comment="band 32">
        <r>  0.0000  0.0000  0.0000  0.0000  0.0000  0.0000  0.0000  0.0000  0.0000 </r>
        <r>  0.0000  0.0000  0.0000  0.0000  0.0000  0.0000  0.0000  0.0000  0.0000 </r>
       </set>
       <set comment="band 33">
        <r>  0.0516  0.0007  0.0000  0.0000  0.0000  0.0000  0.0000  0.0000  0.0000 </r>
        <r>  0.0516  0.0007  0.0000  0.0000  0.0000  0.0000  0.0000  0.0000  0.0000 </r>
       </set>
       <set comment="band 34">
        <r>  0.0516  0.0007  0.0000  0.0000  0.0000  0.0000  0.0000  0.0000  0.0000 </r>
        <r>  0.0516  0.0007  0.0000  0.0000  0.0000  0.0000  0.0000  0.0000  0.0000 </r>
       </set>
       <set comment="band 35">
        <r>  0.0000  0.0000  0.0110  0.0111  0.0000  0.0000  0.0000  0.0000  0.0000 </r>
        <r>  0.0000  0.0000  0.0111  0.0110  0.0000  0.0000  0.0000  0.0000  0.0000 </r>
       </set>
       <set comment="band 36">
        <r>  0.0000  0.0000  0.0111  0.0110  0.0000  0.0000  0.0000  0.0000  0.0000 </r>
        <r>  0.0000  0.0000  0.0110  0.0111  0.0000  0.0000  0.0000  0.0000  0.0000 </r>
       </set>
       <set comment="band 37">
        <r>  0.0000  0.0000  0.0118  0.0118  0.0000  0.0000  0.0000  0.0000  0.0000 </r>
        <r>  0.0000  0.0000  0.0118  0.0118  0.0000  0.0000  0.0000  0.0000  0.0000 </r>
       </set>
       <set comment="band 38">
        <r>  0.0000  0.0000  0.0118  0.0118  0.0000  0.0000  0.0000  0.0000  0.0000 </r>
        <r>  0.0000  0.0000  0.0118  0.0118  0.0000  0.0000  0.0000  0.0000  0.0000 </r>
       </set>
       <set comment="band 39">
        <r>  0.0040  0.0211  0.0000  0.0000  0.0000  0.0000  0.0000  0.0000  0.0000 </r>
        <r>  0.0040  0.0211  0.0000  0.0000  0.0000  0.0000  0.0000  0.0000  0.0000 </r>
       </set>
       <set comment="band 40">
        <r>  0.0040  0.0211  0.0000  0.0000  0.0000  0.0000  0.0000  0.0000  0.0000 </r>
        <r>  0.0040  0.0211  0.0000  0.0000  0.0000  0.0000  0.0000  0.0000  0.0000 </r>
       </set>
       <set comment="band 41">
        <r>  0.0000  0.0000  0.0041  0.0041  0.0000  0.0000  0.0000  0.0000  0.0000 </r>
        <r>  0.0000  0.0000  0.0041  0.0041  0.0000  0.0000  0.0000  0.0000  0.0000 </r>
       </set>
       <set comment="band 42">
        <r>  0.0000  0.0000  0.0041  0.0041  0.0000  0.0000  0.0000  0.0000  0.0000 </r>
        <r>  0.0000  0.0000  0.0041  0.0041  0.0000  0.0000  0.0000  0.0000  0.0000 </r>
       </set>
       <set comment="band 43">
        <r>  0.0000  0.0000  0.0058  0.0055  0.0000  0.0000  0.0000  0.0000  0.0000 </r>
        <r>  0.0000  0.0000  0.0055  0.0058  0.0000  0.0000  0.0000  0.0000  0.0000 </r>
       </set>
       <set comment="band 44">
        <r>  0.0000  0.0000  0.0055  0.0058  0.0000  0.0000  0.0000  0.0000  0.0000 </r>
        <r>  0.0000  0.0000  0.0058  0.0055  0.0000  0.0000  0.0000  0.0000  0.0000 </r>
       </set>
       <set comment="band 45">
        <r>  0.0000  0.0000  0.0000  0.0000  0.0000  0.0000  0.0000  0.0000  0.0000 </r>
        <r>  0.0000  0.0000  0.0000  0.0000  0.0000  0.0000  0.0000  0.0000  0.0000 </r>
       </set>
       <set comment="band 46">
        <r>  0.0000  0.0000  0.0000  0.0000  0.0000  0.0000  0.0000  0.0000  0.0000 </r>
        <r>  0.0000  0.0000  0.0000  0.0000  0.0000  0.0000  0.0000  0.0000  0.0000 </r>
       </set>
       <set comment="band 47">
        <r>  0.0208  0.0745  0.0000  0.0000  0.0000  0.0000  0.0000  0.0000  0.0000 </r>
        <r>  0.0188  0.0827  0.0000  0.0000  0.0000  0.0000  0.0000  0.0000  0.0000 </r>
       </set>
       <set comment="band 48">
        <r>  0.0188  0.0827  0.0000  0.0000  0.0000  0.0000  0.0000  0.0000  0.0000 </r>
        <r>  0.0208  0.0745  0.0000  0.0000  0.0000  0.0000  0.0000  0.0000  0.0000 </r>
       </set>
       <set comment="band 49">
        <r>  0.0206  0.0101  0.0000  0.0000  0.0000  0.0000  0.0000  0.0000  0.0000 </r>
        <r>  0.0022  0.0931  0.0000  0.0000  0.0000  0.0000  0.0000  0.0000  0.0000 </r>
       </set>
       <set comment="band 50">
        <r>  0.0022  0.0931  0.0000  0.0000  0.0000  0.0000  0.0000  0.0000  0.0000 </r>
        <r>  0.0206  0.0101  0.0000  0.0000  0.0000  0.0000  0.0000  0.0000  0.0000 </r>
       </set>
       <set comment="band 51">
        <r>  0.0000  0.0000  0.0213  0.0260  0.0000  0.0000  0.0000  0.0000  0.0000 </r>
        <r>  0.0000  0.0000  0.0260  0.0213  0.0000  0.0000  0.0000  0.0000  0.0000 </r>
       </set>
       <set comment="band 52">
        <r>  0.0000  0.0000  0.0260  0.0213  0.0000  0.0000  0.0000  0.0000  0.0000 </r>
        <r>  0.0000  0.0000  0.0213  0.0260  0.0000  0.0000  0.0000  0.0000  0.0000 </r>
       </set>
       <set comment="band 53">
        <r>  0.0000  0.0000  0.0000  0.0000  0.0000  0.0000  0.0000  0.0000  0.0000 </r>
        <r>  0.0000  0.0000  0.0000  0.0000  0.0000  0.0000  0.0000  0.0000  0.0000 </r>
       </set>
       <set comment="band 54">
        <r>  0.0000  0.0000  0.0000  0.0000  0.0000  0.0000  0.0000  0.0000  0.0000 </r>
        <r>  0.0000  0.0000  0.0000  0.0000  0.0000  0.0000  0.0000  0.0000  0.0000 </r>
       </set>
       <set comment="band 55">
        <r>  0.0000  0.0000  0.0857  0.0109  0.0000  0.0000  0.0000  0.0000  0.0000 </r>
        <r>  0.0000  0.0000  0.0109  0.0857  0.0000  0.0000  0.0000  0.0000  0.0000 </r>
       </set>
       <set comment="band 56">
        <r>  0.0000  0.0000  0.0109  0.0857  0.0000  0.0000  0.0000  0.0000  0.0000 </r>
        <r>  0.0000  0.0000  0.0857  0.0109  0.0000  0.0000  0.0000  0.0000  0.0000 </r>
       </set>
       <set comment="band 57">
        <r>  0.0000  0.0000  0.0076  0.0012  0.0000  0.0000  0.0000  0.0000  0.0000 </r>
        <r>  0.0000  0.0000  0.0012  0.0076  0.0000  0.0000  0.0000  0.0000  0.0000 </r>
       </set>
       <set comment="band 58">
        <r>  0.0000  0.0000  0.0012  0.0076  0.0000  0.0000  0.0000  0.0000  0.0000 </r>
        <r>  0.0000  0.0000  0.0076  0.0012  0.0000  0.0000  0.0000  0.0000  0.0000 </r>
       </set>
       <set comment="band 59">
        <r>  0.0000  0.0000  0.0000  0.0000  0.0000  0.0000  0.0000  0.0000  0.0000 </r>
        <r>  0.0000  0.0000  0.0000  0.0000  0.0000  0.0000  0.0000  0.0000  0.0000 </r>
       </set>
       <set comment="band 60">
        <r>  0.0000  0.0000  0.0000  0.0000  0.0000  0.0000  0.0000  0.0000  0.0000 </r>
        <r>  0.0000  0.0000  0.0000  0.0000  0.0000  0.0000  0.0000  0.0000  0.0000 </r>
       </set>
       <set comment="band 61">
        <r>  0.0000  0.0000  0.0130  0.0361  0.0000  0.0000  0.0000  0.0000  0.0000 </r>
        <r>  0.0000  0.0000  0.0360  0.0130  0.0000  0.0000  0.0000  0.0000  0.0000 </r>
       </set>
       <set comment="band 62">
        <r>  0.0000  0.0000  0.0360  0.0130  0.0000  0.0000  0.0000  0.0000  0.0000 </r>
        <r>  0.0000  0.0000  0.0130  0.0361  0.0000  0.0000  0.0000  0.0000  0.0000 </r>
       </set>
       <set comment="band 63">
        <r>  0.2676  0.0000  0.0000  0.0000  0.0000  0.0000  0.0000  0.0000  0.0000 </r>
        <r>  0.0194  0.0000  0.0000  0.0000  0.0000  0.0000  0.0000  0.0000  0.0000 </r>
       </set>
       <set comment="band 64">
        <r>  0.0193  0.0000  0.0000  0.0000  0.0000  0.0000  0.0000  0.0000  0.0000 </r>
        <r>  0.2676  0.0000  0.0000  0.0000  0.0000  0.0000  0.0000  0.0000  0.0000 </r>
       </set>
      </set>
     </set>
    </set>
   </array>
  </projected>
 </calculation>
 <structure name="finalpos" >
  <crystal>
   <varray name="basis" >
    <v>       0.00000000       2.73461824       2.73461824 </v>
    <v>       2.73461824       0.00000000       2.73461824 </v>
    <v>       2.73461824       2.73461824       0.00000000 </v>
   </varray>
   <i name="volume">     40.89969924 </i>
   <varray name="rec_basis" >
    <v>      -0.18284088       0.18284088       0.18284088 </v>
    <v>       0.18284088      -0.18284088       0.18284088 </v>
    <v>       0.18284088       0.18284088      -0.18284088 </v>
   </varray>
  </crystal>
  <varray name="positions" >
   <v>       0.25000000       0.25000000       0.25000000 </v>
   <v>       0.00000000       0.00000000       0.00000000 </v>
  </varray>
 </structure>
</modeling>
